# Selection   : all
# Cells       : 400
# Volume      : 1.000000e+00
# Time        	min(U)
0             	(0.000000e+00 0.000000e+00 0.000000e+00)
0.01          	(-1.045823e-02 -2.293784e-02 0.000000e+00)
0.02          	(-2.078273e-02 -4.813336e-02 0.000000e+00)
0.03          	(-2.985919e-02 -7.260871e-02 0.000000e+00)
0.04          	(-3.724661e-02 -9.481643e-02 0.000000e+00)
0.05          	(-4.299861e-02 -1.145385e-01 0.000000e+00)
0.06          	(-4.735185e-02 -1.320700e-01 0.000000e+00)
0.07          	(-5.056778e-02 -1.477859e-01 0.000000e+00)
0.08          	(-5.519334e-02 -1.619964e-01 0.000000e+00)
0.09          	(-6.019625e-02 -1.749318e-01 0.000000e+00)
0.1           	(-6.480969e-02 -1.867626e-01 0.000000e+00)
0.11          	(-6.904887e-02 -1.976195e-01 0.000000e+00)
0.12          	(-7.292423e-02 -2.076138e-01 0.000000e+00)
0.13          	(-7.644774e-02 -2.168353e-01 0.000000e+00)
0.14          	(-7.963295e-02 -2.253651e-01 0.000000e+00)
0.15          	(-8.249139e-02 -2.332719e-01 0.000000e+00)
0.16          	(-8.503509e-02 -2.406163e-01 0.000000e+00)
0.17          	(-8.727583e-02 -2.474516e-01 0.000000e+00)
0.18          	(-8.922465e-02 -2.538245e-01 0.000000e+00)
0.19          	(-9.089260e-02 -2.597764e-01 0.000000e+00)
0.2           	(-9.228890e-02 -2.653436e-01 0.000000e+00)
0.21          	(-9.500197e-02 -2.705572e-01 0.000000e+00)
0.22          	(-9.798843e-02 -2.754405e-01 0.000000e+00)
0.23          	(-1.008515e-01 -2.800375e-01 0.000000e+00)
0.24          	(-1.036067e-01 -2.843896e-01 0.000000e+00)
0.25          	(-1.062448e-01 -2.884974e-01 0.000000e+00)
0.26          	(-1.087562e-01 -2.923641e-01 0.000000e+00)
0.27          	(-1.111387e-01 -2.960062e-01 0.000000e+00)
0.28          	(-1.133939e-01 -2.994434e-01 0.000000e+00)
0.29          	(-1.155241e-01 -3.026936e-01 0.000000e+00)
0.3           	(-1.175318e-01 -3.057714e-01 0.000000e+00)
0.31          	(-1.194192e-01 -3.086894e-01 0.000000e+00)
0.32          	(-1.211886e-01 -3.114588e-01 0.000000e+00)
0.33          	(-1.228422e-01 -3.140900e-01 0.000000e+00)
0.34          	(-1.243825e-01 -3.165931e-01 0.000000e+00)
0.35          	(-1.258085e-01 -3.189605e-01 0.000000e+00)
0.36          	(-1.271238e-01 -3.212067e-01 0.000000e+00)
0.37          	(-1.283325e-01 -3.233446e-01 0.000000e+00)
0.38          	(-1.294375e-01 -3.253813e-01 0.000000e+00)
0.39          	(-1.304413e-01 -3.273221e-01 0.000000e+00)
0.4           	(-1.313466e-01 -3.291719e-01 0.000000e+00)
0.41          	(-1.321559e-01 -3.309353e-01 0.000000e+00)
0.42          	(-1.328717e-01 -3.326172e-01 0.000000e+00)
0.43          	(-1.334969e-01 -3.342222e-01 0.000000e+00)
0.44          	(-1.340338e-01 -3.357526e-01 0.000000e+00)
0.45          	(-1.346043e-01 -3.372019e-01 0.000000e+00)
0.46          	(-1.362057e-01 -3.385917e-01 0.000000e+00)
0.47          	(-1.377519e-01 -3.399213e-01 0.000000e+00)
0.48          	(-1.393472e-01 -3.411917e-01 0.000000e+00)
0.49          	(-1.409184e-01 -3.424069e-01 0.000000e+00)
0.5           	(-1.424355e-01 -3.435695e-01 0.000000e+00)
0.51          	(-1.438986e-01 -3.446822e-01 0.000000e+00)
0.52          	(-1.453078e-01 -3.457476e-01 0.000000e+00)
0.53          	(-1.466621e-01 -3.467679e-01 0.000000e+00)
0.54          	(-1.479653e-01 -3.477462e-01 0.000000e+00)
0.55          	(-1.492174e-01 -3.486845e-01 0.000000e+00)
0.56          	(-1.504179e-01 -3.495847e-01 0.000000e+00)
0.57          	(-1.515670e-01 -3.504488e-01 0.000000e+00)
0.58          	(-1.526651e-01 -3.512786e-01 0.000000e+00)
0.59          	(-1.537128e-01 -3.520760e-01 0.000000e+00)
0.6           	(-1.547102e-01 -3.528424e-01 0.000000e+00)
0.61          	(-1.556563e-01 -3.535796e-01 0.000000e+00)
0.62          	(-1.565426e-01 -3.542891e-01 0.000000e+00)
0.63          	(-1.573983e-01 -3.549725e-01 0.000000e+00)
0.64          	(-1.582158e-01 -3.556305e-01 0.000000e+00)
0.65          	(-1.589897e-01 -3.562639e-01 0.000000e+00)
0.66          	(-1.597189e-01 -3.568740e-01 0.000000e+00)
0.67          	(-1.604038e-01 -3.574618e-01 0.000000e+00)
0.68          	(-1.610454e-01 -3.586087e-01 0.000000e+00)
0.69          	(-1.616450e-01 -3.604722e-01 0.000000e+00)
0.7           	(-1.622038e-01 -3.622867e-01 0.000000e+00)
0.71          	(-1.627228e-01 -3.640534e-01 0.000000e+00)
0.72          	(-1.632034e-01 -3.657746e-01 0.000000e+00)
0.73          	(-1.636468e-01 -3.674516e-01 0.000000e+00)
0.74          	(-1.640539e-01 -3.690856e-01 0.000000e+00)
0.75          	(-1.644258e-01 -3.706779e-01 0.000000e+00)
0.76          	(-1.647638e-01 -3.722298e-01 0.000000e+00)
0.77          	(-1.652693e-01 -3.737428e-01 0.000000e+00)
0.78          	(-1.663137e-01 -3.752186e-01 0.000000e+00)
0.79          	(-1.673319e-01 -3.766587e-01 0.000000e+00)
0.8           	(-1.683160e-01 -3.780591e-01 0.000000e+00)
0.81          	(-1.692697e-01 -3.794237e-01 0.000000e+00)
0.82          	(-1.701954e-01 -3.807550e-01 0.000000e+00)
0.83          	(-1.710941e-01 -3.820545e-01 0.000000e+00)
0.84          	(-1.719659e-01 -3.833230e-01 0.000000e+00)
0.85          	(-1.728108e-01 -3.845614e-01 0.000000e+00)
0.86          	(-1.736289e-01 -3.857703e-01 0.000000e+00)
0.87          	(-1.744202e-01 -3.869503e-01 0.000000e+00)
0.88          	(-1.751848e-01 -3.881023e-01 0.000000e+00)
0.89          	(-1.759244e-01 -3.892276e-01 0.000000e+00)
0.9           	(-1.766387e-01 -3.903266e-01 0.000000e+00)
0.91          	(-1.773274e-01 -3.913999e-01 0.000000e+00)
0.92          	(-1.779908e-01 -3.924483e-01 0.000000e+00)
0.93          	(-1.786291e-01 -3.934723e-01 0.000000e+00)
0.94          	(-1.792428e-01 -3.944726e-01 0.000000e+00)
0.95          	(-1.798322e-01 -3.954500e-01 0.000000e+00)
0.96          	(-1.803976e-01 -3.964051e-01 0.000000e+00)
0.97          	(-1.809395e-01 -3.973386e-01 0.000000e+00)
0.98          	(-1.814582e-01 -3.982509e-01 0.000000e+00)
0.99          	(-1.819541e-01 -3.991428e-01 0.000000e+00)
1             	(-1.824276e-01 -4.000147e-01 0.000000e+00)
1.01          	(-1.828790e-01 -4.008672e-01 0.000000e+00)
1.02          	(-1.833087e-01 -4.017009e-01 0.000000e+00)
1.03          	(-1.837170e-01 -4.025163e-01 0.000000e+00)
1.04          	(-1.841044e-01 -4.033138e-01 0.000000e+00)
1.05          	(-1.844713e-01 -4.040939e-01 0.000000e+00)
1.06          	(-1.848180e-01 -4.048572e-01 0.000000e+00)
1.07          	(-1.851448e-01 -4.056039e-01 0.000000e+00)
1.08          	(-1.854522e-01 -4.063347e-01 0.000000e+00)
1.09          	(-1.857406e-01 -4.070498e-01 0.000000e+00)
1.1           	(-1.860102e-01 -4.077497e-01 0.000000e+00)
1.11          	(-1.862612e-01 -4.084347e-01 0.000000e+00)
1.12          	(-1.864942e-01 -4.091053e-01 0.000000e+00)
1.13          	(-1.867105e-01 -4.097622e-01 0.000000e+00)
1.14          	(-1.869099e-01 -4.104056e-01 0.000000e+00)
1.15          	(-1.870925e-01 -4.110357e-01 0.000000e+00)
1.16          	(-1.872588e-01 -4.116527e-01 0.000000e+00)
1.17          	(-1.874090e-01 -4.122571e-01 0.000000e+00)
1.18          	(-1.875435e-01 -4.128491e-01 0.000000e+00)
1.19          	(-1.876649e-01 -4.134291e-01 0.000000e+00)
1.2           	(-1.882787e-01 -4.139973e-01 0.000000e+00)
1.21          	(-1.888774e-01 -4.145540e-01 0.000000e+00)
1.22          	(-1.894608e-01 -4.150996e-01 0.000000e+00)
1.23          	(-1.900286e-01 -4.156342e-01 0.000000e+00)
1.24          	(-1.905833e-01 -4.161584e-01 0.000000e+00)
1.25          	(-1.911242e-01 -4.166723e-01 0.000000e+00)
1.26          	(-1.916508e-01 -4.171762e-01 0.000000e+00)
1.27          	(-1.921629e-01 -4.176702e-01 0.000000e+00)
1.28          	(-1.926605e-01 -4.181545e-01 0.000000e+00)
1.29          	(-1.931425e-01 -4.186294e-01 0.000000e+00)
1.3           	(-1.936113e-01 -4.190952e-01 0.000000e+00)
1.31          	(-1.940689e-01 -4.195521e-01 0.000000e+00)
1.32          	(-1.945142e-01 -4.200005e-01 0.000000e+00)
1.33          	(-1.949463e-01 -4.204393e-01 0.000000e+00)
1.34          	(-1.953646e-01 -4.208685e-01 0.000000e+00)
1.35          	(-1.957697e-01 -4.212902e-01 0.000000e+00)
1.36          	(-1.961620e-01 -4.217050e-01 0.000000e+00)
1.37          	(-1.965417e-01 -4.221127e-01 0.000000e+00)
1.38          	(-1.969091e-01 -4.225133e-01 0.000000e+00)
1.39          	(-1.972642e-01 -4.229068e-01 0.000000e+00)
1.4           	(-1.976072e-01 -4.232933e-01 0.000000e+00)
1.41          	(-1.979383e-01 -4.236728e-01 0.000000e+00)
1.42          	(-1.982576e-01 -4.241414e-01 0.000000e+00)
1.43          	(-1.985652e-01 -4.248392e-01 0.000000e+00)
1.44          	(-1.988609e-01 -4.255265e-01 0.000000e+00)
1.45          	(-1.991429e-01 -4.262031e-01 0.000000e+00)
1.46          	(-1.994163e-01 -4.268702e-01 0.000000e+00)
1.47          	(-1.996809e-01 -4.275279e-01 0.000000e+00)
1.48          	(-1.999353e-01 -4.281758e-01 0.000000e+00)
1.49          	(-2.001792e-01 -4.288140e-01 0.000000e+00)
1.5           	(-2.004123e-01 -4.294427e-01 0.000000e+00)
1.51          	(-2.006348e-01 -4.300619e-01 0.000000e+00)
1.52          	(-2.008464e-01 -4.306719e-01 0.000000e+00)
1.53          	(-2.010486e-01 -4.312729e-01 0.000000e+00)
1.54          	(-2.012427e-01 -4.318654e-01 0.000000e+00)
1.55          	(-2.014280e-01 -4.324493e-01 0.000000e+00)
1.56          	(-2.016043e-01 -4.330246e-01 0.000000e+00)
1.57          	(-2.017713e-01 -4.335915e-01 0.000000e+00)
1.58          	(-2.019292e-01 -4.341500e-01 0.000000e+00)
1.59          	(-2.020782e-01 -4.347005e-01 0.000000e+00)
1.6           	(-2.022185e-01 -4.352429e-01 0.000000e+00)
1.61          	(-2.023502e-01 -4.357775e-01 0.000000e+00)
1.62          	(-2.024736e-01 -4.363045e-01 0.000000e+00)
1.63          	(-2.025888e-01 -4.368238e-01 0.000000e+00)
1.64          	(-2.026960e-01 -4.373358e-01 0.000000e+00)
1.65          	(-2.027953e-01 -4.378404e-01 0.000000e+00)
1.66          	(-2.028869e-01 -4.383379e-01 0.000000e+00)
1.67          	(-2.029710e-01 -4.388283e-01 0.000000e+00)
1.68          	(-2.030476e-01 -4.393118e-01 0.000000e+00)
1.69          	(-2.031170e-01 -4.397885e-01 0.000000e+00)
1.7           	(-2.031794e-01 -4.402585e-01 0.000000e+00)
1.71          	(-2.032347e-01 -4.407219e-01 0.000000e+00)
1.72          	(-2.032833e-01 -4.411789e-01 0.000000e+00)
1.73          	(-2.033251e-01 -4.416295e-01 0.000000e+00)
1.74          	(-2.036272e-01 -4.420738e-01 0.000000e+00)
1.75          	(-2.039918e-01 -4.425121e-01 0.000000e+00)
1.76          	(-2.043489e-01 -4.429443e-01 0.000000e+00)
1.77          	(-2.046986e-01 -4.433705e-01 0.000000e+00)
1.78          	(-2.050409e-01 -4.437910e-01 0.000000e+00)
1.79          	(-2.053760e-01 -4.442057e-01 0.000000e+00)
1.8           	(-2.057039e-01 -4.446148e-01 0.000000e+00)
1.81          	(-2.060247e-01 -4.450183e-01 0.000000e+00)
1.82          	(-2.063385e-01 -4.454164e-01 0.000000e+00)
1.83          	(-2.066453e-01 -4.458091e-01 0.000000e+00)
1.84          	(-2.069453e-01 -4.461965e-01 0.000000e+00)
1.85          	(-2.072386e-01 -4.465788e-01 0.000000e+00)
1.86          	(-2.075254e-01 -4.469561e-01 0.000000e+00)
1.87          	(-2.078057e-01 -4.473283e-01 0.000000e+00)
1.88          	(-2.080796e-01 -4.476957e-01 0.000000e+00)
1.89          	(-2.083472e-01 -4.480582e-01 0.000000e+00)
1.9           	(-2.086084e-01 -4.484159e-01 0.000000e+00)
1.91          	(-2.088635e-01 -4.487689e-01 0.000000e+00)
1.92          	(-2.091125e-01 -4.491173e-01 0.000000e+00)
1.93          	(-2.093554e-01 -4.494611e-01 0.000000e+00)
1.94          	(-2.095925e-01 -4.498005e-01 0.000000e+00)
1.95          	(-2.098237e-01 -4.501355e-01 0.000000e+00)
1.96          	(-2.100491e-01 -4.504661e-01 0.000000e+00)
1.97          	(-2.102689e-01 -4.507925e-01 0.000000e+00)
1.98          	(-2.104831e-01 -4.511148e-01 0.000000e+00)
1.99          	(-2.106918e-01 -4.514329e-01 0.000000e+00)
2             	(-2.108951e-01 -4.517470e-01 0.000000e+00)
2.01          	(-2.110931e-01 -4.520570e-01 0.000000e+00)
2.02          	(-2.112859e-01 -4.523632e-01 0.000000e+00)
2.03          	(-2.114734e-01 -4.526655e-01 0.000000e+00)
2.04          	(-2.116559e-01 -4.529640e-01 0.000000e+00)
2.05          	(-2.118334e-01 -4.532588e-01 0.000000e+00)
2.06          	(-2.120060e-01 -4.535499e-01 0.000000e+00)
2.07          	(-2.121737e-01 -4.538374e-01 0.000000e+00)
2.08          	(-2.123367e-01 -4.541213e-01 0.000000e+00)
2.09          	(-2.124949e-01 -4.544017e-01 0.000000e+00)
2.1           	(-2.126486e-01 -4.546787e-01 0.000000e+00)
2.11          	(-2.127977e-01 -4.549522e-01 0.000000e+00)
2.12          	(-2.129423e-01 -4.552224e-01 0.000000e+00)
2.13          	(-2.130826e-01 -4.554893e-01 0.000000e+00)
2.14          	(-2.132185e-01 -4.557530e-01 0.000000e+00)
2.15          	(-2.133502e-01 -4.560135e-01 0.000000e+00)
2.16          	(-2.134776e-01 -4.562708e-01 0.000000e+00)
2.17          	(-2.136010e-01 -4.565250e-01 0.000000e+00)
2.18          	(-2.137204e-01 -4.567762e-01 0.000000e+00)
2.19          	(-2.138357e-01 -4.570244e-01 0.000000e+00)
2.2           	(-2.139472e-01 -4.572696e-01 0.000000e+00)
2.21          	(-2.140548e-01 -4.575119e-01 0.000000e+00)
2.22          	(-2.141587e-01 -4.577514e-01 0.000000e+00)
2.23          	(-2.142588e-01 -4.579880e-01 0.000000e+00)
2.24          	(-2.143553e-01 -4.582218e-01 0.000000e+00)
2.25          	(-2.144482e-01 -4.584529e-01 0.000000e+00)
2.26          	(-2.145376e-01 -4.586812e-01 0.000000e+00)
2.27          	(-2.146235e-01 -4.589069e-01 0.000000e+00)
2.28          	(-2.147061e-01 -4.591300e-01 0.000000e+00)
2.29          	(-2.147853e-01 -4.593505e-01 0.000000e+00)
2.3           	(-2.148612e-01 -4.595685e-01 0.000000e+00)
2.31          	(-2.149338e-01 -4.597840e-01 0.000000e+00)
2.32          	(-2.150034e-01 -4.599969e-01 0.000000e+00)
2.33          	(-2.150699e-01 -4.602074e-01 0.000000e+00)
2.34          	(-2.151335e-01 -4.604156e-01 0.000000e+00)
2.35          	(-2.151940e-01 -4.606213e-01 0.000000e+00)
2.36          	(-2.152515e-01 -4.608247e-01 0.000000e+00)
2.37          	(-2.153062e-01 -4.610259e-01 0.000000e+00)
2.38          	(-2.153580e-01 -4.612247e-01 0.000000e+00)
2.39          	(-2.154071e-01 -4.614214e-01 0.000000e+00)
2.4           	(-2.154534e-01 -4.616158e-01 0.000000e+00)
2.41          	(-2.154971e-01 -4.618080e-01 0.000000e+00)
2.42          	(-2.155381e-01 -4.619982e-01 0.000000e+00)
2.43          	(-2.155766e-01 -4.621862e-01 0.000000e+00)
2.44          	(-2.156125e-01 -4.623721e-01 0.000000e+00)
2.45          	(-2.156460e-01 -4.625560e-01 0.000000e+00)
2.46          	(-2.156770e-01 -4.627378e-01 0.000000e+00)
2.47          	(-2.157056e-01 -4.629177e-01 0.000000e+00)
2.48          	(-2.157320e-01 -4.630956e-01 0.000000e+00)
2.49          	(-2.157560e-01 -4.632716e-01 0.000000e+00)
2.5           	(-2.157778e-01 -4.634456e-01 0.000000e+00)
2.51          	(-2.157973e-01 -4.636178e-01 0.000000e+00)
2.52          	(-2.158147e-01 -4.637881e-01 0.000000e+00)
2.53          	(-2.158301e-01 -4.639566e-01 0.000000e+00)
2.54          	(-2.158433e-01 -4.641233e-01 0.000000e+00)
2.55          	(-2.158545e-01 -4.642882e-01 0.000000e+00)
2.56          	(-2.158637e-01 -4.644513e-01 0.000000e+00)
2.57          	(-2.158709e-01 -4.646127e-01 0.000000e+00)
2.58          	(-2.158762e-01 -4.647724e-01 0.000000e+00)
2.59          	(-2.158797e-01 -4.649304e-01 0.000000e+00)
2.6           	(-2.158813e-01 -4.650868e-01 0.000000e+00)
2.61          	(-2.158811e-01 -4.652415e-01 0.000000e+00)
2.62          	(-2.158792e-01 -4.653946e-01 0.000000e+00)
2.63          	(-2.158755e-01 -4.655460e-01 0.000000e+00)
2.64          	(-2.158701e-01 -4.656959e-01 0.000000e+00)
2.65          	(-2.158631e-01 -4.658443e-01 0.000000e+00)
2.66          	(-2.158545e-01 -4.659911e-01 0.000000e+00)
2.67          	(-2.158443e-01 -4.661364e-01 0.000000e+00)
2.68          	(-2.158325e-01 -4.662802e-01 0.000000e+00)
2.69          	(-2.159431e-01 -4.664226e-01 0.000000e+00)
2.7           	(-2.160769e-01 -4.665634e-01 0.000000e+00)
2.71          	(-2.162082e-01 -4.667029e-01 0.000000e+00)
2.72          	(-2.163371e-01 -4.668409e-01 0.000000e+00)
2.73          	(-2.164637e-01 -4.669776e-01 0.000000e+00)
2.74          	(-2.165879e-01 -4.671128e-01 0.000000e+00)
2.75          	(-2.167097e-01 -4.672467e-01 0.000000e+00)
2.76          	(-2.168293e-01 -4.673792e-01 0.000000e+00)
2.77          	(-2.169466e-01 -4.675105e-01 0.000000e+00)
2.78          	(-2.170617e-01 -4.676404e-01 0.000000e+00)
2.79          	(-2.171746e-01 -4.677690e-01 0.000000e+00)
2.8           	(-2.172854e-01 -4.678963e-01 0.000000e+00)
2.81          	(-2.173940e-01 -4.680224e-01 0.000000e+00)
2.82          	(-2.175005e-01 -4.681472e-01 0.000000e+00)
2.83          	(-2.176049e-01 -4.682708e-01 0.000000e+00)
2.84          	(-2.177072e-01 -4.683932e-01 0.000000e+00)
2.85          	(-2.178076e-01 -4.685144e-01 0.000000e+00)
2.86          	(-2.179059e-01 -4.686345e-01 0.000000e+00)
2.87          	(-2.180023e-01 -4.687533e-01 0.000000e+00)
2.88          	(-2.180968e-01 -4.688710e-01 0.000000e+00)
2.89          	(-2.181893e-01 -4.689876e-01 0.000000e+00)
2.9           	(-2.182799e-01 -4.691030e-01 0.000000e+00)
2.91          	(-2.183686e-01 -4.692173e-01 0.000000e+00)
2.92          	(-2.184555e-01 -4.693306e-01 0.000000e+00)
2.93          	(-2.185405e-01 -4.694427e-01 0.000000e+00)
2.94          	(-2.186234e-01 -4.695538e-01 0.000000e+00)
2.95          	(-2.187046e-01 -4.696637e-01 0.000000e+00)
2.96          	(-2.187848e-01 -4.697728e-01 0.000000e+00)
2.97          	(-2.188636e-01 -4.698808e-01 0.000000e+00)
2.98          	(-2.189406e-01 -4.699878e-01 0.000000e+00)
2.99          	(-2.190158e-01 -4.700938e-01 0.000000e+00)
3             	(-2.190893e-01 -4.701988e-01 0.000000e+00)
3.01          	(-2.191610e-01 -4.703027e-01 0.000000e+00)
3.02          	(-2.192310e-01 -4.704057e-01 0.000000e+00)
3.03          	(-2.192991e-01 -4.705077e-01 0.000000e+00)
3.04          	(-2.193660e-01 -4.706088e-01 0.000000e+00)
3.05          	(-2.194314e-01 -4.707091e-01 0.000000e+00)
3.06          	(-2.194952e-01 -4.708084e-01 0.000000e+00)
3.07          	(-2.195568e-01 -4.709068e-01 0.000000e+00)
3.08          	(-2.196176e-01 -4.710043e-01 0.000000e+00)
3.09          	(-2.196780e-01 -4.711009e-01 0.000000e+00)
3.1           	(-2.197371e-01 -4.711967e-01 0.000000e+00)
3.11          	(-2.197948e-01 -4.712915e-01 0.000000e+00)
3.12          	(-2.198509e-01 -4.713855e-01 0.000000e+00)
3.13          	(-2.199056e-01 -4.714786e-01 0.000000e+00)
3.14          	(-2.199589e-01 -4.715709e-01 0.000000e+00)
3.15          	(-2.200109e-01 -4.716623e-01 0.000000e+00)
3.16          	(-2.200615e-01 -4.717529e-01 0.000000e+00)
3.17          	(-2.201108e-01 -4.718427e-01 0.000000e+00)
3.18          	(-2.201589e-01 -4.719318e-01 0.000000e+00)
3.19          	(-2.202058e-01 -4.720200e-01 0.000000e+00)
3.2           	(-2.202514e-01 -4.721074e-01 0.000000e+00)
3.21          	(-2.202959e-01 -4.721941e-01 0.000000e+00)
3.22          	(-2.203391e-01 -4.722800e-01 0.000000e+00)
3.23          	(-2.203812e-01 -4.723651e-01 0.000000e+00)
3.24          	(-2.204222e-01 -4.724495e-01 0.000000e+00)
3.25          	(-2.204621e-01 -4.725332e-01 0.000000e+00)
3.26          	(-2.205008e-01 -4.726161e-01 0.000000e+00)
3.27          	(-2.205385e-01 -4.726984e-01 0.000000e+00)
3.28          	(-2.205751e-01 -4.727799e-01 0.000000e+00)
3.29          	(-2.206106e-01 -4.728606e-01 0.000000e+00)
3.3           	(-2.206451e-01 -4.729407e-01 0.000000e+00)
3.31          	(-2.206785e-01 -4.730201e-01 0.000000e+00)
3.32          	(-2.207111e-01 -4.730989e-01 0.000000e+00)
3.33          	(-2.207427e-01 -4.731770e-01 0.000000e+00)
3.34          	(-2.207733e-01 -4.732544e-01 0.000000e+00)
3.35          	(-2.208030e-01 -4.733312e-01 0.000000e+00)
3.36          	(-2.208317e-01 -4.734073e-01 0.000000e+00)
3.37          	(-2.208595e-01 -4.734828e-01 0.000000e+00)
3.38          	(-2.208864e-01 -4.735576e-01 0.000000e+00)
3.39          	(-2.209124e-01 -4.736319e-01 0.000000e+00)
3.4           	(-2.209374e-01 -4.737054e-01 0.000000e+00)
3.41          	(-2.209617e-01 -4.737784e-01 0.000000e+00)
3.42          	(-2.209850e-01 -4.738508e-01 0.000000e+00)
3.43          	(-2.210076e-01 -4.739226e-01 0.000000e+00)
3.44          	(-2.210293e-01 -4.739937e-01 0.000000e+00)
3.45          	(-2.210502e-01 -4.740643e-01 0.000000e+00)
3.46          	(-2.210703e-01 -4.741343e-01 0.000000e+00)
3.47          	(-2.210896e-01 -4.742038e-01 0.000000e+00)
3.48          	(-2.211081e-01 -4.742726e-01 0.000000e+00)
3.49          	(-2.211259e-01 -4.743409e-01 0.000000e+00)
3.5           	(-2.211430e-01 -4.744087e-01 0.000000e+00)
3.51          	(-2.211592e-01 -4.744759e-01 0.000000e+00)
3.52          	(-2.211748e-01 -4.745426e-01 0.000000e+00)
3.53          	(-2.211897e-01 -4.746087e-01 0.000000e+00)
3.54          	(-2.212038e-01 -4.746743e-01 0.000000e+00)
3.55          	(-2.212173e-01 -4.747394e-01 0.000000e+00)
3.56          	(-2.212300e-01 -4.748040e-01 0.000000e+00)
3.57          	(-2.212421e-01 -4.748681e-01 0.000000e+00)
3.58          	(-2.212534e-01 -4.749317e-01 0.000000e+00)
3.59          	(-2.212640e-01 -4.749947e-01 0.000000e+00)
3.6           	(-2.212738e-01 -4.750574e-01 0.000000e+00)
3.61          	(-2.212828e-01 -4.751195e-01 0.000000e+00)
3.62          	(-2.212918e-01 -4.751812e-01 0.000000e+00)
3.63          	(-2.213006e-01 -4.752423e-01 0.000000e+00)
3.64          	(-2.213091e-01 -4.753030e-01 0.000000e+00)
3.65          	(-2.213169e-01 -4.753632e-01 0.000000e+00)
3.66          	(-2.213239e-01 -4.754227e-01 0.000000e+00)
3.67          	(-2.213302e-01 -4.754817e-01 0.000000e+00)
3.68          	(-2.213359e-01 -4.755403e-01 0.000000e+00)
3.69          	(-2.213410e-01 -4.755984e-01 0.000000e+00)
3.7           	(-2.213456e-01 -4.756561e-01 0.000000e+00)
3.71          	(-2.213497e-01 -4.757133e-01 0.000000e+00)
3.72          	(-2.213532e-01 -4.757702e-01 0.000000e+00)
3.73          	(-2.213563e-01 -4.758267e-01 0.000000e+00)
3.74          	(-2.213588e-01 -4.758827e-01 0.000000e+00)
3.75          	(-2.213608e-01 -4.759383e-01 0.000000e+00)
3.76          	(-2.213624e-01 -4.759935e-01 0.000000e+00)
3.77          	(-2.213633e-01 -4.760481e-01 0.000000e+00)
3.78          	(-2.213638e-01 -4.761024e-01 0.000000e+00)
3.79          	(-2.213638e-01 -4.761563e-01 0.000000e+00)
3.8           	(-2.213634e-01 -4.762098e-01 0.000000e+00)
3.81          	(-2.213625e-01 -4.762629e-01 0.000000e+00)
3.82          	(-2.213612e-01 -4.763156e-01 0.000000e+00)
3.83          	(-2.213595e-01 -4.763680e-01 0.000000e+00)
3.84          	(-2.213573e-01 -4.764200e-01 0.000000e+00)
3.85          	(-2.213548e-01 -4.764716e-01 0.000000e+00)
3.86          	(-2.213518e-01 -4.765228e-01 0.000000e+00)
3.87          	(-2.213485e-01 -4.765736e-01 0.000000e+00)
3.88          	(-2.213447e-01 -4.766240e-01 0.000000e+00)
3.89          	(-2.213405e-01 -4.766741e-01 0.000000e+00)
3.9           	(-2.213358e-01 -4.767237e-01 0.000000e+00)
3.91          	(-2.213307e-01 -4.767729e-01 0.000000e+00)
3.92          	(-2.213252e-01 -4.768217e-01 0.000000e+00)
3.93          	(-2.213196e-01 -4.768703e-01 0.000000e+00)
3.94          	(-2.213138e-01 -4.769186e-01 0.000000e+00)
3.95          	(-2.213080e-01 -4.769666e-01 0.000000e+00)
3.96          	(-2.213019e-01 -4.770142e-01 0.000000e+00)
3.97          	(-2.212954e-01 -4.770614e-01 0.000000e+00)
3.98          	(-2.212885e-01 -4.771082e-01 0.000000e+00)
3.99          	(-2.212812e-01 -4.771547e-01 0.000000e+00)
4             	(-2.212737e-01 -4.772009e-01 0.000000e+00)
4.01          	(-2.212658e-01 -4.772467e-01 0.000000e+00)
4.02          	(-2.212576e-01 -4.772921e-01 0.000000e+00)
4.03          	(-2.212491e-01 -4.773372e-01 0.000000e+00)
4.04          	(-2.212404e-01 -4.773820e-01 0.000000e+00)
4.05          	(-2.212313e-01 -4.774264e-01 0.000000e+00)
4.06          	(-2.212220e-01 -4.774705e-01 0.000000e+00)
4.07          	(-2.212124e-01 -4.775143e-01 0.000000e+00)
4.08          	(-2.212025e-01 -4.775577e-01 0.000000e+00)
4.09          	(-2.211924e-01 -4.776008e-01 0.000000e+00)
4.1           	(-2.211820e-01 -4.776436e-01 0.000000e+00)
4.11          	(-2.211714e-01 -4.776861e-01 0.000000e+00)
4.12          	(-2.211605e-01 -4.777283e-01 0.000000e+00)
4.13          	(-2.211494e-01 -4.777702e-01 0.000000e+00)
4.14          	(-2.211380e-01 -4.778118e-01 0.000000e+00)
4.15          	(-2.211265e-01 -4.778531e-01 0.000000e+00)
4.16          	(-2.211147e-01 -4.778941e-01 0.000000e+00)
4.17          	(-2.211027e-01 -4.779348e-01 0.000000e+00)
4.18          	(-2.210906e-01 -4.779752e-01 0.000000e+00)
4.19          	(-2.210784e-01 -4.780153e-01 0.000000e+00)
4.2           	(-2.210656e-01 -4.780552e-01 0.000000e+00)
4.21          	(-2.210525e-01 -4.780947e-01 0.000000e+00)
4.22          	(-2.210393e-01 -4.781340e-01 0.000000e+00)
4.23          	(-2.210258e-01 -4.781730e-01 0.000000e+00)
4.24          	(-2.210620e-01 -4.782118e-01 0.000000e+00)
4.25          	(-2.211102e-01 -4.782503e-01 0.000000e+00)
4.26          	(-2.211578e-01 -4.782885e-01 0.000000e+00)
4.27          	(-2.212049e-01 -4.783264e-01 0.000000e+00)
4.28          	(-2.212516e-01 -4.783641e-01 0.000000e+00)
4.29          	(-2.212977e-01 -4.784015e-01 0.000000e+00)
4.3           	(-2.213434e-01 -4.784386e-01 0.000000e+00)
4.31          	(-2.213886e-01 -4.784755e-01 0.000000e+00)
4.32          	(-2.214333e-01 -4.785122e-01 0.000000e+00)
4.33          	(-2.214776e-01 -4.785486e-01 0.000000e+00)
4.34          	(-2.215214e-01 -4.785848e-01 0.000000e+00)
4.35          	(-2.215648e-01 -4.786207e-01 0.000000e+00)
4.36          	(-2.216076e-01 -4.786563e-01 0.000000e+00)
4.37          	(-2.216501e-01 -4.786918e-01 0.000000e+00)
4.38          	(-2.216921e-01 -4.787269e-01 0.000000e+00)
4.39          	(-2.217337e-01 -4.787619e-01 0.000000e+00)
4.4           	(-2.217748e-01 -4.787966e-01 0.000000e+00)
4.41          	(-2.218155e-01 -4.788311e-01 0.000000e+00)
4.42          	(-2.218558e-01 -4.788654e-01 0.000000e+00)
4.43          	(-2.218957e-01 -4.788994e-01 0.000000e+00)
4.44          	(-2.219352e-01 -4.789332e-01 0.000000e+00)
4.45          	(-2.219742e-01 -4.789668e-01 0.000000e+00)
4.46          	(-2.220129e-01 -4.790002e-01 0.000000e+00)
4.47          	(-2.220511e-01 -4.790333e-01 0.000000e+00)
4.48          	(-2.220890e-01 -4.790662e-01 0.000000e+00)
4.49          	(-2.221264e-01 -4.790989e-01 0.000000e+00)
4.5           	(-2.221635e-01 -4.791314e-01 0.000000e+00)
4.51          	(-2.222002e-01 -4.791637e-01 0.000000e+00)
4.52          	(-2.222365e-01 -4.791958e-01 0.000000e+00)
4.53          	(-2.222724e-01 -4.792277e-01 0.000000e+00)
4.54          	(-2.223080e-01 -4.792593e-01 0.000000e+00)
4.55          	(-2.223432e-01 -4.792908e-01 0.000000e+00)
4.56          	(-2.223781e-01 -4.793220e-01 0.000000e+00)
4.57          	(-2.224125e-01 -4.793531e-01 0.000000e+00)
4.58          	(-2.224467e-01 -4.793839e-01 0.000000e+00)
4.59          	(-2.224805e-01 -4.794146e-01 0.000000e+00)
4.6           	(-2.225139e-01 -4.794451e-01 0.000000e+00)
4.61          	(-2.225470e-01 -4.794753e-01 0.000000e+00)
4.62          	(-2.225797e-01 -4.795054e-01 0.000000e+00)
4.63          	(-2.226121e-01 -4.795353e-01 0.000000e+00)
4.64          	(-2.226442e-01 -4.795650e-01 0.000000e+00)
4.65          	(-2.226760e-01 -4.795945e-01 0.000000e+00)
4.66          	(-2.227074e-01 -4.796238e-01 0.000000e+00)
4.67          	(-2.227385e-01 -4.796529e-01 0.000000e+00)
4.68          	(-2.227693e-01 -4.796819e-01 0.000000e+00)
4.69          	(-2.227998e-01 -4.797107e-01 0.000000e+00)
4.7           	(-2.228300e-01 -4.797393e-01 0.000000e+00)
4.71          	(-2.228599e-01 -4.797677e-01 0.000000e+00)
4.72          	(-2.228894e-01 -4.797959e-01 0.000000e+00)
4.73          	(-2.229187e-01 -4.798239e-01 0.000000e+00)
4.74          	(-2.229477e-01 -4.798518e-01 0.000000e+00)
4.75          	(-2.229763e-01 -4.798795e-01 0.000000e+00)
4.76          	(-2.230047e-01 -4.799070e-01 0.000000e+00)
4.77          	(-2.230328e-01 -4.799344e-01 0.000000e+00)
4.78          	(-2.230606e-01 -4.799616e-01 0.000000e+00)
4.79          	(-2.230881e-01 -4.799886e-01 0.000000e+00)
4.8           	(-2.231154e-01 -4.800155e-01 0.000000e+00)
4.81          	(-2.231424e-01 -4.800422e-01 0.000000e+00)
4.82          	(-2.231692e-01 -4.800687e-01 0.000000e+00)
4.83          	(-2.231956e-01 -4.800951e-01 0.000000e+00)
4.84          	(-2.232218e-01 -4.801213e-01 0.000000e+00)
4.85          	(-2.232477e-01 -4.801474e-01 0.000000e+00)
4.86          	(-2.232734e-01 -4.801733e-01 0.000000e+00)
4.87          	(-2.232988e-01 -4.801990e-01 0.000000e+00)
4.88          	(-2.233240e-01 -4.802246e-01 0.000000e+00)
4.89          	(-2.233489e-01 -4.802501e-01 0.000000e+00)
4.9           	(-2.233735e-01 -4.802753e-01 0.000000e+00)
4.91          	(-2.233979e-01 -4.803005e-01 0.000000e+00)
4.92          	(-2.234221e-01 -4.803254e-01 0.000000e+00)
4.93          	(-2.234460e-01 -4.803503e-01 0.000000e+00)
4.94          	(-2.234697e-01 -4.803749e-01 0.000000e+00)
4.95          	(-2.234932e-01 -4.803995e-01 0.000000e+00)
4.96          	(-2.235164e-01 -4.804238e-01 0.000000e+00)
4.97          	(-2.235394e-01 -4.804481e-01 0.000000e+00)
4.98          	(-2.235622e-01 -4.804722e-01 0.000000e+00)
4.99          	(-2.235847e-01 -4.804961e-01 0.000000e+00)
5             	(-2.236071e-01 -4.805199e-01 0.000000e+00)
5.01          	(-2.236292e-01 -4.805436e-01 0.000000e+00)
5.02          	(-2.236511e-01 -4.805671e-01 0.000000e+00)
5.03          	(-2.236727e-01 -4.805905e-01 0.000000e+00)
5.04          	(-2.236942e-01 -4.806137e-01 0.000000e+00)
5.05          	(-2.237154e-01 -4.806369e-01 0.000000e+00)
5.06          	(-2.237365e-01 -4.806598e-01 0.000000e+00)
5.07          	(-2.237573e-01 -4.806827e-01 0.000000e+00)
5.08          	(-2.237779e-01 -4.807054e-01 0.000000e+00)
5.09          	(-2.237984e-01 -4.807279e-01 0.000000e+00)
5.1           	(-2.238186e-01 -4.807504e-01 0.000000e+00)
5.11          	(-2.238386e-01 -4.807727e-01 0.000000e+00)
5.12          	(-2.238585e-01 -4.807949e-01 0.000000e+00)
5.13          	(-2.238781e-01 -4.808169e-01 0.000000e+00)
5.14          	(-2.238976e-01 -4.808388e-01 0.000000e+00)