/*--------------------------------*- C++ -*----------------------------------*\
  =========                 |
  \\      /  F ield         | OpenFOAM: The Open Source CFD Toolbox
   \\    /   O peration     | Website:  https://openfoam.org
    \\  /    A nd           | Version:  13
     \\/     M anipulation  |
\*---------------------------------------------------------------------------*/
FoamFile
{
    format      ascii;
    class       volScalarField;
    location    "38";
    object      p;
}
// * * * * * * * * * * * * * * * * * * * * * * * * * * * * * * * * * * * * * //

dimensions      [0 2 -2 0 0 0 0];

internalField   nonuniform List<scalar> 
400
(
8.30802e-08
-0.000572442
-0.00121606
-0.00171893
-0.00195924
-0.0018847
-0.00147052
-0.000705591
0.000401237
0.00180591
0.00341464
0.00507496
0.00659098
0.00775103
0.00837973
0.00839555
0.00785527
0.00696884
0.00604797
0.00549431
0.000569924
-2.03234e-05
-0.000569714
-0.000957118
-0.0011321
-0.00106202
-0.000726002
-0.000109281
0.000788714
0.00193939
0.00326973
0.00466007
0.00594065
0.00692976
0.00747419
0.00750173
0.00705915
0.00631878
0.0055432
0.0049726
0.00124565
0.000492947
-8.67293e-05
-0.000441405
-0.000606228
-0.000576367
-0.000337328
0.000132554
0.00084965
0.00180683
0.00295479
0.00419173
0.00536438
0.00629378
0.00681923
0.00685288
0.00642073
0.00566815
0.00480889
0.00403714
0.00174053
0.00076362
7.36266e-05
-0.000321963
-0.000537169
-0.000592806
-0.000478296
-0.000160206
0.000399987
0.00122204
0.00228163
0.00349281
0.00470166
0.00570969
0.00631937
0.00639814
0.00593351
0.00505056
0.00394837
0.00284439
0.00179544
0.000595648
-0.000227768
-0.000704857
-0.00101817
-0.00120728
-0.00125942
-0.00112305
-0.000730535
-2.78644e-05
0.000991714
0.00226356
0.00363003
0.00486122
0.00569865
0.00593231
0.0054804
0.00443549
0.00299992
0.00146206
0.00119469
-0.000203069
-0.00116335
-0.00175275
-0.00221143
-0.00259069
-0.00286929
-0.00297123
-0.00279195
-0.00223294
-0.00124409
0.000150497
0.00179283
0.00341982
0.00469021
0.00527472
0.0049719
0.00380568
0.001979
-0.00010407
-0.000241649
-0.0018001
-0.00289229
-0.00362226
-0.00427772
-0.00491664
-0.00550508
-0.00593754
-0.00606456
-0.00572845
-0.00480692
-0.00328519
-0.00127036
0.000946676
0.00292627
0.00416986
0.00427926
0.00313555
0.000902606
-0.00185627
-0.00265198
-0.00432635
-0.00554126
-0.0064393
-0.00734713
-0.00832773
-0.00933387
-0.0102287
-0.0108112
-0.0108504
-0.0101335
-0.008539
-0.00610707
-0.00311227
-8.64316e-05
0.00225504
0.00321266
0.00239529
-0.000177367
-0.00375296
-0.00612139
-0.00786171
-0.00918472
-0.0102718
-0.011483
-0.0128893
-0.0144344
-0.0159529
-0.0171896
-0.0178276
-0.0175353
-0.0160427
-0.0132531
-0.00935751
-0.00493603
-0.000941406
0.00150809
0.00155459
-0.00113715
-0.00564679
-0.0106715
-0.0124237
-0.0138275
-0.015102
-0.0166422
-0.0185358
-0.0207271
-0.0230304
-0.0251404
-0.0266491
-0.0270841
-0.0259776
-0.0230342
-0.0182541
-0.0121678
-0.00592214
-0.00114229
0.000603027
-0.00173139
-0.00719514
-0.0162605
-0.0179653
-0.0193957
-0.0208061
-0.0226415
-0.0250234
-0.0279113
-0.0311115
-0.0342775
-0.0369139
-0.0383953
-0.0380067
-0.0352841
-0.0298335
-0.0220051
-0.0130064
-0.00495982
-0.000375572
-0.00151603
-0.00772068
-0.0228029
-0.02439
-0.0257427
-0.0271484
-0.0291435
-0.0319106
-0.0354424
-0.0395494
-0.0438549
-0.0477846
-0.0505799
-0.0513771
-0.0491634
-0.043394
-0.0339889
-0.0219777
-0.00980594
-0.00102478
0.000280035
-0.00600001
-0.0302225
-0.0315862
-0.0326695
-0.033792
-0.0356681
-0.0385799
-0.042569
-0.047455
-0.0528343
-0.0580626
-0.062251
-0.0643106
-0.0630223
-0.057332
-0.0466929
-0.031705
-0.0148011
-0.000417087
0.00496559
2.27918e-05
-0.03856
-0.0394894
-0.0399612
-0.0403269
-0.0416349
-0.0443095
-0.0484455
-0.0538593
-0.0601059
-0.0664654
-0.0719294
-0.0752215
-0.0748704
-0.0694214
-0.057807
-0.0400021
-0.0180233
0.00327953
0.0146986
0.0135557
-0.0481748
-0.0481569
-0.0474034
-0.0462841
-0.046412
-0.0483712
-0.0522815
-0.0579131
-0.0647394
-0.0719354
-0.0783606
-0.0825613
-0.0828322
-0.0773738
-0.0646453
-0.043937
-0.0165435
0.0130188
0.0329311
0.0392807
-0.060235
-0.0579577
-0.0548672
-0.0512134
-0.0494272
-0.0501784
-0.0535203
-0.0590937
-0.0662201
-0.0739187
-0.0808794
-0.0854534
-0.085707
-0.0795199
-0.0649419
-0.0406113
-0.00697887
0.0328168
0.0647937
0.0836768
-0.0774814
-0.0694732
-0.0620874
-0.0545494
-0.050139
-0.0493251
-0.0519044
-0.057261
-0.0644862
-0.072385
-0.07944
-0.0837784
-0.0832185
-0.075283
-0.0576214
-0.0282113
0.0133524
0.066661
0.115752
0.154807
-0.108926
-0.0850401
-0.0697734
-0.0563916
-0.0485411
-0.0458812
-0.0476243
-0.052715
-0.0599172
-0.067777
-0.0745524
-0.0781401
-0.0761044
-0.0655426
-0.0436433
-0.00744509
0.0447431
0.114933
0.188078
0.263281
-0.168693
-0.100746
-0.0730932
-0.0522882
-0.0413102
-0.0376998
-0.039442
-0.0448655
-0.0524158
-0.060447
-0.067074
-0.0700479
-0.0666875
-0.0537884
-0.0278899
0.0154099
0.0800716
0.17276
0.285855
0.445985
-0.402754
-0.139031
-0.0734592
-0.0447302
-0.0305718
-0.0266176
-0.0290856
-0.0353735
-0.0436541
-0.0522074
-0.059124
-0.0621456
-0.0586175
-0.0452141
-0.0174509
0.0310786
0.108496
0.236657
0.427487
0.79368
)
;

boundaryField
{
    movingWall
    {
        type            zeroGradient;
    }
    fixedWalls
    {
        type            zeroGradient;
    }
    frontAndBack
    {
        type            empty;
    }
}


// ************************************************************************* //
