/*--------------------------------*- C++ -*----------------------------------*\
  =========                 |
  \\      /  F ield         | OpenFOAM: The Open Source CFD Toolbox
   \\    /   O peration     | Website:  https://openfoam.org
    \\  /    A nd           | Version:  13
     \\/     M anipulation  |
\*---------------------------------------------------------------------------*/
FoamFile
{
    format      ascii;
    class       volScalarField;
    location    "34";
    object      p;
}
// * * * * * * * * * * * * * * * * * * * * * * * * * * * * * * * * * * * * * //

dimensions      [0 2 -2 0 0 0 0];

internalField   nonuniform List<scalar> 
400
(
1.70903e-07
-0.000572347
-0.00121594
-0.00171882
-0.00195916
-0.00188463
-0.00147042
-0.000705473
0.000401345
0.001806
0.00341474
0.00507506
0.0065911
0.00775116
0.00837986
0.00839569
0.0078554
0.00696897
0.00604808
0.00549441
0.000570023
-2.02509e-05
-0.000569623
-0.000956984
-0.00113197
-0.00106193
-0.00072593
-0.000109191
0.000788822
0.0019395
0.00326983
0.00466017
0.00594075
0.00692987
0.00747431
0.00750185
0.00705928
0.0063189
0.00554332
0.00497271
0.00124577
0.000493034
-8.66683e-05
-0.00044131
-0.000606098
-0.000576245
-0.000337234
0.000132637
0.000849744
0.00180694
0.0029549
0.00419184
0.00536449
0.00629388
0.00681932
0.00685297
0.00642083
0.00566825
0.004809
0.00403726
0.00174067
0.000763759
7.3714e-05
-0.000321889
-0.000537066
-0.000592683
-0.000478185
-0.000160112
0.000400079
0.00122214
0.00228174
0.00349293
0.00470177
0.0057098
0.00631947
0.00639823
0.00593359
0.00505065
0.00394848
0.00284451
0.00179555
0.000595809
-0.000227633
-0.000704768
-0.00101808
-0.00120717
-0.00125931
-0.00112295
-0.000730437
-2.77615e-05
0.000991824
0.00226367
0.00363015
0.00486133
0.00569877
0.00593242
0.0054805
0.00443558
0.00300002
0.00146218
0.00119478
-0.000202933
-0.0011632
-0.00175263
-0.00221134
-0.0025906
-0.00286919
-0.00297113
-0.00279185
-0.00223284
-0.00124398
0.000150614
0.00179295
0.00341994
0.00469033
0.00527484
0.00497201
0.00380578
0.00197911
-0.000103953
-0.00024154
-0.0018
-0.00289215
-0.00362212
-0.00427762
-0.00491655
-0.00550498
-0.00593744
-0.00606446
-0.00572835
-0.00480682
-0.00328507
-0.00127023
0.000946804
0.0029264
0.00416998
0.00427937
0.00313566
0.000902716
-0.00185615
-0.00265184
-0.00432625
-0.00554114
-0.00643917
-0.00734701
-0.00832763
-0.00933378
-0.0102286
-0.0108111
-0.0108503
-0.0101334
-0.00853888
-0.00610695
-0.00311214
-8.63097e-05
0.00225516
0.00321277
0.00239539
-0.00017726
-0.00375285
-0.00612124
-0.0078616
-0.00918462
-0.0102717
-0.0114829
-0.0128892
-0.0144343
-0.0159528
-0.0171895
-0.0178275
-0.0175352
-0.0160426
-0.013253
-0.00935739
-0.00493591
-0.000941297
0.0015082
0.00155469
-0.00113704
-0.00564669
-0.0106714
-0.0124235
-0.0138274
-0.0151019
-0.0166421
-0.0185357
-0.020727
-0.0230303
-0.0251403
-0.026649
-0.027084
-0.0259774
-0.0230341
-0.018254
-0.0121676
-0.00592203
-0.00114218
0.000603129
-0.00173129
-0.00719504
-0.0162604
-0.0179652
-0.0193956
-0.020806
-0.0226414
-0.0250232
-0.0279112
-0.0311114
-0.0342774
-0.0369137
-0.0383952
-0.0380066
-0.035284
-0.0298334
-0.022005
-0.0130063
-0.00495971
-0.000375467
-0.00151593
-0.00772058
-0.0228028
-0.0243899
-0.0257425
-0.0271483
-0.0291433
-0.0319105
-0.0354423
-0.0395492
-0.0438548
-0.0477845
-0.0505798
-0.051377
-0.0491633
-0.0433939
-0.0339888
-0.0219776
-0.00980583
-0.00102467
0.000280139
-0.0059999
-0.0302224
-0.0315861
-0.0326694
-0.0337919
-0.035668
-0.0385797
-0.0425688
-0.0474549
-0.0528341
-0.0580625
-0.0622509
-0.0643105
-0.0630222
-0.0573319
-0.0466927
-0.0317049
-0.014801
-0.000416983
0.00496569
2.28954e-05
-0.0385599
-0.0394893
-0.0399611
-0.0403268
-0.0416348
-0.0443094
-0.0484454
-0.0538592
-0.0601058
-0.0664653
-0.0719293
-0.0752214
-0.0748702
-0.0694213
-0.0578069
-0.040002
-0.0180232
0.00327963
0.0146987
0.0135558
-0.0481746
-0.0481568
-0.0474033
-0.046284
-0.0464119
-0.0483711
-0.0522813
-0.057913
-0.0647393
-0.0719352
-0.0783605
-0.0825611
-0.0828321
-0.0773737
-0.0646451
-0.0439369
-0.0165434
0.0130189
0.0329312
0.0392808
-0.0602348
-0.0579576
-0.0548671
-0.0512133
-0.0494271
-0.0501783
-0.0535202
-0.0590936
-0.0662199
-0.0739186
-0.0808793
-0.0854533
-0.0857068
-0.0795198
-0.0649418
-0.0406112
-0.00697876
0.0328169
0.0647939
0.0836769
-0.0774813
-0.0694731
-0.0620873
-0.0545493
-0.0501389
-0.049325
-0.0519043
-0.0572609
-0.0644861
-0.0723849
-0.0794399
-0.0837783
-0.0832183
-0.0752829
-0.0576213
-0.0282112
0.0133525
0.0666611
0.115752
0.154807
-0.108926
-0.08504
-0.0697733
-0.0563915
-0.048541
-0.0458811
-0.0476242
-0.0527149
-0.0599171
-0.0677769
-0.0745523
-0.07814
-0.0761043
-0.0655425
-0.0436432
-0.00744499
0.0447432
0.114933
0.188078
0.263281
-0.168693
-0.100746
-0.073093
-0.0522881
-0.0413101
-0.0376996
-0.0394419
-0.0448654
-0.0524157
-0.0604469
-0.0670738
-0.0700478
-0.0666874
-0.0537883
-0.0278898
0.01541
0.0800717
0.17276
0.285855
0.445986
-0.402754
-0.139031
-0.0734591
-0.0447301
-0.0305717
-0.0266175
-0.0290855
-0.0353734
-0.043654
-0.0522073
-0.0591239
-0.0621455
-0.0586174
-0.045214
-0.0174508
0.0310787
0.108496
0.236657
0.427487
0.79368
)
;

boundaryField
{
    movingWall
    {
        type            zeroGradient;
    }
    fixedWalls
    {
        type            zeroGradient;
    }
    frontAndBack
    {
        type            empty;
    }
}


// ************************************************************************* //
