/*--------------------------------*- C++ -*----------------------------------*\
  =========                 |
  \\      /  F ield         | OpenFOAM: The Open Source CFD Toolbox
   \\    /   O peration     | Website:  https://openfoam.org
    \\  /    A nd           | Version:  13
     \\/     M anipulation  |
\*---------------------------------------------------------------------------*/
FoamFile
{
    format      ascii;
    class       volScalarField;
    location    "37";
    object      p;
}
// * * * * * * * * * * * * * * * * * * * * * * * * * * * * * * * * * * * * * //

dimensions      [0 2 -2 0 0 0 0];

internalField   nonuniform List<scalar> 
400
(
9.30716e-08
-0.000572434
-0.00121604
-0.00171891
-0.00195924
-0.00188472
-0.00147051
-0.000705567
0.000401258
0.00180592
0.00341465
0.00507498
0.00659101
0.00775106
0.00837976
0.00839559
0.00785531
0.00696888
0.00604799
0.00549432
0.000569937
-2.03332e-05
-0.000569712
-0.000957081
-0.00113206
-0.00106202
-0.000726014
-0.000109279
0.000788733
0.00193941
0.00326975
0.00466009
0.00594067
0.00692978
0.00747421
0.00750176
0.00705919
0.00631881
0.00554323
0.00497262
0.00124568
0.000492951
-8.6749e-05
-0.0004414
-0.000606193
-0.000576336
-0.000337322
0.00013255
0.000849656
0.00180685
0.00295481
0.00419176
0.0053644
0.00629379
0.00681923
0.00685288
0.00642073
0.00566816
0.00480891
0.00403716
0.00174057
0.000763666
7.36323e-05
-0.000321972
-0.000537156
-0.000592776
-0.000478276
-0.000160201
0.00039999
0.00122205
0.00228166
0.00349284
0.00470169
0.00570971
0.00631938
0.00639814
0.0059335
0.00505056
0.00394839
0.00284442
0.00179546
0.000595712
-0.000227722
-0.00070485
-0.00101817
-0.00120726
-0.0012594
-0.00112304
-0.000730529
-2.78522e-05
0.000991736
0.00226359
0.00363006
0.00486125
0.00569868
0.00593233
0.0054804
0.00443549
0.00299993
0.00146209
0.0011947
-0.000203027
-0.00116329
-0.00175272
-0.00221143
-0.00259068
-0.00286928
-0.00297122
-0.00279194
-0.00223293
-0.00124407
0.000150524
0.00179286
0.00341985
0.00469024
0.00527475
0.00497192
0.00380569
0.00197902
-0.000104043
-0.000241627
-0.00180009
-0.00289224
-0.00362221
-0.0042777
-0.00491664
-0.00550507
-0.00593754
-0.00606456
-0.00572844
-0.00480691
-0.00328517
-0.00127033
0.00094671
0.00292631
0.00416988
0.00427928
0.00313556
0.000902626
-0.00185624
-0.00265194
-0.00432634
-0.00554123
-0.00643926
-0.0073471
-0.00832772
-0.00933387
-0.0102287
-0.0108112
-0.0108504
-0.0101335
-0.00853898
-0.00610704
-0.00311224
-8.64066e-05
0.00225506
0.00321267
0.0023953
-0.000177351
-0.00375294
-0.00612134
-0.00786169
-0.00918471
-0.0102718
-0.011483
-0.0128893
-0.0144344
-0.0159529
-0.0171896
-0.0178276
-0.0175353
-0.0160427
-0.0132531
-0.00935749
-0.00493601
-0.000941394
0.0015081
0.0015546
-0.00113714
-0.00564678
-0.0106715
-0.0124236
-0.0138275
-0.015102
-0.0166422
-0.0185358
-0.0207271
-0.0230304
-0.0251404
-0.0266491
-0.0270841
-0.0259775
-0.0230342
-0.0182541
-0.0121677
-0.00592213
-0.00114228
0.000603035
-0.00173138
-0.00719514
-0.0162605
-0.0179653
-0.0193957
-0.0208061
-0.0226415
-0.0250233
-0.0279113
-0.0311115
-0.0342775
-0.0369138
-0.0383953
-0.0380067
-0.0352841
-0.0298335
-0.0220051
-0.0130064
-0.00495981
-0.000375563
-0.00151602
-0.00772067
-0.0228029
-0.02439
-0.0257426
-0.0271484
-0.0291434
-0.0319106
-0.0354424
-0.0395493
-0.0438549
-0.0477846
-0.0505799
-0.0513771
-0.0491634
-0.043394
-0.0339889
-0.0219777
-0.00980593
-0.00102477
0.000280044
-0.006
-0.0302225
-0.0315862
-0.0326695
-0.033792
-0.0356681
-0.0385799
-0.0425689
-0.047455
-0.0528343
-0.0580626
-0.062251
-0.0643106
-0.0630223
-0.057332
-0.0466928
-0.0317049
-0.0148011
-0.000417076
0.0049656
2.28034e-05
-0.03856
-0.0394894
-0.0399612
-0.0403269
-0.0416349
-0.0443095
-0.0484455
-0.0538593
-0.0601059
-0.0664654
-0.0719294
-0.0752215
-0.0748703
-0.0694214
-0.057807
-0.0400021
-0.0180233
0.00327954
0.0146986
0.0135557
-0.0481747
-0.0481569
-0.0474034
-0.0462841
-0.046412
-0.0483712
-0.0522814
-0.0579131
-0.0647394
-0.0719353
-0.0783606
-0.0825612
-0.0828322
-0.0773738
-0.0646452
-0.043937
-0.0165434
0.0130189
0.0329311
0.0392807
-0.0602349
-0.0579576
-0.0548672
-0.0512134
-0.0494271
-0.0501784
-0.0535203
-0.0590937
-0.06622
-0.0739187
-0.0808794
-0.0854534
-0.0857069
-0.0795199
-0.0649419
-0.0406112
-0.00697885
0.0328168
0.0647938
0.0836768
-0.0774814
-0.0694732
-0.0620874
-0.0545494
-0.050139
-0.0493251
-0.0519044
-0.057261
-0.0644862
-0.072385
-0.07944
-0.0837784
-0.0832184
-0.075283
-0.0576214
-0.0282113
0.0133525
0.066661
0.115752
0.154807
-0.108926
-0.0850401
-0.0697734
-0.0563916
-0.0485411
-0.0458812
-0.0476243
-0.052715
-0.0599172
-0.067777
-0.0745524
-0.0781401
-0.0761044
-0.0655426
-0.0436432
-0.00744508
0.0447431
0.114933
0.188078
0.263281
-0.168693
-0.100746
-0.0730931
-0.0522882
-0.0413102
-0.0376997
-0.039442
-0.0448655
-0.0524158
-0.060447
-0.0670739
-0.0700479
-0.0666875
-0.0537884
-0.0278898
0.0154099
0.0800716
0.17276
0.285855
0.445985
-0.402754
-0.139031
-0.0734592
-0.0447302
-0.0305718
-0.0266176
-0.0290856
-0.0353735
-0.0436541
-0.0522074
-0.059124
-0.0621456
-0.0586175
-0.045214
-0.0174509
0.0310787
0.108496
0.236657
0.427487
0.79368
)
;

boundaryField
{
    movingWall
    {
        type            zeroGradient;
    }
    fixedWalls
    {
        type            zeroGradient;
    }
    frontAndBack
    {
        type            empty;
    }
}


// ************************************************************************* //
