/*--------------------------------*- C++ -*----------------------------------*\
  =========                 |
  \\      /  F ield         | OpenFOAM: The Open Source CFD Toolbox
   \\    /   O peration     | Website:  https://openfoam.org
    \\  /    A nd           | Version:  13
     \\/     M anipulation  |
\*---------------------------------------------------------------------------*/
FoamFile
{
    format      ascii;
    class       volVectorField;
    location    "37";
    object      U_0;
}
// * * * * * * * * * * * * * * * * * * * * * * * * * * * * * * * * * * * * * //

dimensions      [0 1 -1 0 0 0 0];

internalField   nonuniform List<vector> 
400
(
(0.000213652 -0.000214021 0)
(-9.35216e-05 -1.49502e-05 0)
(-0.001514 0.000202322 0)
(-0.00376291 0.000340569 0)
(-0.00651407 0.000413245 0)
(-0.00947205 0.000441482 0)
(-0.0123872 0.000435809 0)
(-0.0150266 0.000395726 0)
(-0.0171502 0.000314733 0)
(-0.0185118 0.000187273 0)
(-0.0188851 1.56957e-05 0)
(-0.0181145 -0.000186997 0)
(-0.0161741 -0.00038885 0)
(-0.0132184 -0.000547981 0)
(-0.00960426 -0.000620164 0)
(-0.0058604 -0.000573163 0)
(-0.00259521 -0.000400829 0)
(-0.000343884 -0.000134393 0)
(0.000586223 0.000143816 0)
(0.000320281 0.000307113 0)
(2.39057e-06 9.10222e-05 0)
(-0.00201782 0.0018733 0)
(-0.00641682 0.00366749 0)
(-0.0125495 0.00490693 0)
(-0.0197011 0.00556135 0)
(-0.0272168 0.00570098 0)
(-0.0344926 0.00537607 0)
(-0.0409486 0.0045942 0)
(-0.046008 0.00334661 0)
(-0.0491152 0.00165304 0)
(-0.0498015 -0.000394586 0)
(-0.0477768 -0.00260596 0)
(-0.0430404 -0.00468791 0)
(-0.0359711 -0.00628345 0)
(-0.0273516 -0.00704559 0)
(-0.0183064 -0.00674129 0)
(-0.0101238 -0.00535781 0)
(-0.00396724 -0.00318009 0)
(-0.000522389 -0.000840545 0)
(0.00024488 0.000614984 0)
(-0.000277827 0.00168049 0)
(-0.00439049 0.00643595 0)
(-0.0118376 0.0106171 0)
(-0.0215427 0.0134429 0)
(-0.0324744 0.0148702 0)
(-0.0437427 0.0150164 0)
(-0.054507 0.0139695 0)
(-0.0639532 0.0117533 0)
(-0.0712829 0.00838321 0)
(-0.0757474 0.00395589 0)
(-0.0767308 -0.00126696 0)
(-0.0738623 -0.00680851 0)
(-0.0671427 -0.0119854 0)
(-0.0570507 -0.0159841 0)
(-0.0445881 -0.0180194 0)
(-0.031226 -0.0175552 0)
(-0.0187078 -0.0145412 0)
(-0.00869274 -0.00958936 0)
(-0.00231744 -0.00402872 0)
(8.96286e-05 6.81497e-05 0)
(-0.000532278 0.00454882 0)
(-0.00668702 0.0136271 0)
(-0.0170639 0.0208395 0)
(-0.0300825 0.0255197 0)
(-0.0443974 0.0277408 0)
(-0.0589438 0.0277117 0)
(-0.0727306 0.0255702 0)
(-0.0848019 0.0213645 0)
(-0.0942222 0.0151496 0)
(-0.100113 0.00712453 0)
(-0.101734 -0.00224413 0)
(-0.0986028 -0.0121514 0)
(-0.0906255 -0.0214583 0)
(-0.0782368 -0.0288066 0)
(-0.0624933 -0.0328513 0)
(-0.0450819 -0.0326115 0)
(-0.0281596 -0.0278785 0)
(-0.0139633 -0.0195456 0)
(-0.00428213 -0.0096931 0)
(-3.653e-05 -0.00145194 0)
(-0.000750729 0.00859809 0)
(-0.00874859 0.0232568 0)
(-0.0217913 0.0340575 0)
(-0.0378047 0.0407658 0)
(-0.0551509 0.0437423 0)
(-0.0726371 0.0433647 0)
(-0.0891883 0.0398487 0)
(-0.103779 0.0332734 0)
(-0.115399 0.0237297 0)
(-0.123071 0.011508 0)
(-0.125923 -0.00273755 0)
(-0.123289 -0.0178885 0)
(-0.11486 -0.0323414 0)
(-0.100862 -0.0441314 0)
(-0.0822374 -0.0512116 0)
(-0.0607745 -0.0519357 0)
(-0.0390492 -0.0456889 0)
(-0.0200413 -0.0334754 0)
(-0.00648016 -0.018127 0)
(-0.000142564 -0.0039951 0)
(-0.00093053 0.0136724 0)
(-0.0104904 0.0350364 0)
(-0.0258198 0.0499359 0)
(-0.044418 0.0588364 0)
(-0.0644036 0.0625578 0)
(-0.0845029 0.0617386 0)
(-0.103616 0.0567099 0)
(-0.120709 0.0475839 0)
(-0.134749 0.0344639 0)
(-0.144688 0.0176828 0)
(-0.149506 -0.00198586 0)
(-0.148289 -0.0231687 0)
(-0.140385 -0.0438478 0)
(-0.125639 -0.0614114 0)
(-0.104678 -0.0729463 0)
(-0.0792156 -0.0758285 0)
(-0.0521957 -0.068632 0)
(-0.0275018 -0.0521363 0)
(-0.00917949 -0.0298685 0)
(-0.000263178 -0.00771378 0)
(-0.00106577 0.0195794 0)
(-0.0118376 0.0485839 0)
(-0.0289683 0.0680259 0)
(-0.0496269 0.0792862 0)
(-0.0717541 0.0837974 0)
(-0.0940449 0.0825519 0)
(-0.115429 0.076038 0)
(-0.134925 0.0644013 0)
(-0.151531 0.0477179 0)
(-0.16417 0.0262874 0)
(-0.171675 0.000895218 0)
(-0.172861 -0.0269631 0)
(-0.166651 -0.0549441 0)
(-0.152335 -0.0798089 0)
(-0.129982 -0.0976355 0)
(-0.100952 -0.104452 0)
(-0.0683498 -0.0974368 0)
(-0.0370097 -0.0765474 0)
(-0.0127327 -0.0457723 0)
(-0.000442768 -0.0129368 0)
(-0.00114886 0.0260874 0)
(-0.0127188 0.0634291 0)
(-0.0310619 0.087763 0)
(-0.0531237 0.101539 0)
(-0.0767353 0.10693 0)
(-0.100607 0.10537 0)
(-0.123749 0.0975516 0)
(-0.145293 0.0836556 0)
(-0.164333 0.0636888 0)
(-0.17983 0.037827 0)
(-0.190541 0.00673217 0)
(-0.195036 -0.0281568 0)
(-0.19179 -0.0643332 0)
(-0.17943 -0.0980503 0)
(-0.157213 -0.124331 0)
(-0.125753 -0.13751 0)
(-0.0878764 -0.132635 0)
(-0.049154 -0.107867 0)
(-0.0175295 -0.0670142 0)
(-0.000736537 -0.0201971 0)
(-0.00117556 0.0329294 0)
(-0.0130869 0.0790216 0)
(-0.0319677 0.108464 0)
(-0.0546392 0.124859 0)
(-0.078883 0.131217 0)
(-0.103464 0.129501 0)
(-0.127522 0.120659 0)
(-0.150358 0.104923 0)
(-0.171245 0.0821975 0)
(-0.189279 0.0524523 0)
(-0.203264 0.0160831 0)
(-0.211642 -0.0257185 0)
(-0.212531 -0.0705365 0)
(-0.20389 -0.114371 0)
(-0.183967 -0.151328 0)
(-0.152177 -0.173869 0)
(-0.110387 -0.174143 0)
(-0.0642612 -0.14711 0)
(-0.0239722 -0.0950124 0)
(-0.00122034 -0.0302498 0)
(-0.00115258 0.0398257 0)
(-0.0129584 0.0947628 0)
(-0.0316629 0.129344 0)
(-0.0540389 0.14834 0)
(-0.0778642 0.155677 0)
(-0.101994 0.153926 0)
(-0.125737 0.144355 0)
(-0.148626 0.127283 0)
(-0.170197 0.102511 0)
(-0.189806 0.0697504 0)
(-0.206471 0.029014 0)
(-0.218707 -0.018955 0)
(-0.224492 -0.0721157 0)
(-0.221268 -0.126633 0)
(-0.206234 -0.176089 0)
(-0.177229 -0.211218 0)
(-0.134323 -0.220727 0)
(-0.0821218 -0.19467 0)
(-0.0324335 -0.131236 0)
(-0.00200758 -0.0440875 0)
(-0.00110789 0.0465341 0)
(-0.0124662 0.110076 0)
(-0.0303249 0.149574 0)
(-0.0514475 0.170939 0)
(-0.0736408 0.179086 0)
(-0.095891 0.177279 0)
(-0.117723 0.167186 0)
(-0.138956 0.149267 0)
(-0.159469 0.123255 0)
(-0.179007 0.0886018 0)
(-0.196983 0.0448896 0)
(-0.212217 -0.00772607 0)
(-0.222892 -0.0680148 0)
(-0.226271 -0.132663 0)
(-0.218693 -0.195429 0)
(-0.196297 -0.245952 0)
(-0.156607 -0.269505 0)
(-0.101611 -0.249653 0)
(-0.0431493 -0.176837 0)
(-0.00327179 -0.0629405 0)
(-0.00110591 0.0529348 0)
(-0.0119264 0.124516 0)
(-0.0284317 0.168365 0)
(-0.0473761 0.191534 0)
(-0.0666268 0.200032 0)
(-0.0853751 0.197912 0)
(-0.103427 0.187316 0)
(-0.120945 0.168917 0)
(-0.138214 0.142441 0)
(-0.155448 0.107134 0)
(-0.172594 0.0621542 0)
(-0.189149 0.00698698 0)
(-0.203736 -0.0580749 0)
(-0.213827 -0.130843 0)
(-0.215539 -0.206079 0)
(-0.203581 -0.273458 0)
(-0.172567 -0.315701 0)
(-0.120279 -0.309134 0)
(-0.0559915 -0.232032 0)
(-0.00526764 -0.0882265 0)
(-0.0012737 0.0591644 0)
(-0.0119275 0.13793 0)
(-0.0268614 0.18509 0)
(-0.0428145 0.209012 0)
(-0.0577768 0.217001 0)
(-0.0712945 0.213996 0)
(-0.0835648 0.202674 0)
(-0.0951601 0.183974 0)
(-0.10681 0.157685 0)
(-0.119241 0.122927 0)
(-0.133011 0.0785193 0)
(-0.148323 0.0233161 0)
(-0.164645 -0.0432949 0)
(-0.180266 -0.120717 0)
(-0.191689 -0.205521 0)
(-0.193024 -0.288914 0)
(-0.176328 -0.352961 0)
(-0.134117 -0.367624 0)
(-0.0700811 -0.295233 0)
(-0.00832736 -0.121382 0)
(-0.0018496 0.0658225 0)
(-0.0134577 0.150626 0)
(-0.0269704 0.199366 0)
(-0.0392285 0.222309 0)
(-0.0485018 0.228428 0)
(-0.0549765 0.223634 0)
(-0.0594207 0.211133 0)
(-0.0629001 0.192127 0)
(-0.0665999 0.166503 0)
(-0.0717272 0.133342 0)
(-0.0794171 0.0912612 0)
(-0.0905972 0.0386655 0)
(-0.105709 -0.0259478 0)
(-0.124237 -0.103483 0)
(-0.143908 -0.192902 0)
(-0.159453 -0.288465 0)
(-0.161628 -0.374332 0)
(-0.137664 -0.417158 0)
(-0.0832645 -0.362087 0)
(-0.0127832 -0.163496 0)
(-0.00328653 0.0743329 0)
(-0.0180826 0.163586 0)
(-0.0305593 0.211083 0)
(-0.0382763 0.230372 0)
(-0.0401617 0.232671 0)
(-0.0375356 0.224876 0)
(-0.0319955 0.21059 0)
(-0.0251973 0.191169 0)
(-0.0187687 0.166549 0)
(-0.0143161 0.135813 0)
(-0.0134296 0.097502 0)
(-0.0176439 0.0497971 0)
(-0.0283064 -0.00935232 0)
(-0.0462291 -0.0820397 0)
(-0.0709732 -0.169597 0)
(-0.0992356 -0.270382 0)
(-0.122588 -0.373685 0)
(-0.124373 -0.448105 0)
(-0.0915501 -0.42466 0)
(-0.0187138 -0.214586 0)
(-0.00636395 0.0873957 0)
(-0.0280122 0.178258 0)
(-0.0392814 0.219869 0)
(-0.0405777 0.231591 0)
(-0.0323249 0.227563 0)
(-0.0177608 0.215419 0)
(0.000375792 0.198796 0)
(0.0197643 0.178929 0)
(0.0383905 0.15567 0)
(0.0543769 0.128075 0)
(0.0658504 0.0947007 0)
(0.0708766 0.0537246 0)
(0.0674218 0.00295853 0)
(0.053528 -0.0602722 0)
(0.0276644 -0.138977 0)
(-0.00977088 -0.235631 0)
(-0.053766 -0.347024 0)
(-0.0866158 -0.450324 0)
(-0.08852 -0.470852 0)
(-0.0253076 -0.272265 0)
(-0.0125247 0.110609 0)
(-0.0452197 0.196708 0)
(-0.0514518 0.224539 0)
(-0.040873 0.22312 0)
(-0.017034 0.209833 0)
(0.0139338 0.192196 0)
(0.048021 0.173108 0)
(0.0823858 0.153192 0)
(0.114854 0.13197 0)
(0.143516 0.108393 0)
(0.166462 0.0810821 0)
(0.181621 0.0483821 0)
(0.186571 0.00832004 0)
(0.178643 -0.0416954 0)
(0.15476 -0.105195 0)
(0.112463 -0.187489 0)
(0.0512043 -0.293356 0)
(-0.0143149 -0.414488 0)
(-0.0643336 -0.485122 0)
(-0.0295905 -0.330461 0)
(-0.0216115 0.148418 0)
(-0.0652287 0.213122 0)
(-0.0493934 0.215069 0)
(-0.013031 0.19509 0)
(0.0358889 0.171614 0)
(0.0887365 0.149603 0)
(0.141277 0.129846 0)
(0.191067 0.111755 0)
(0.236471 0.094308 0)
(0.276073 0.0763375 0)
(0.308328 0.0566067 0)
(0.331398 0.0337853 0)
(0.342844 0.00634661 0)
(0.339858 -0.0276629 0)
(0.318525 -0.0712371 0)
(0.274661 -0.130266 0)
(0.202175 -0.214989 0)
(0.107943 -0.334974 0)
(-0.00320459 -0.451463 0)
(-0.0232651 -0.378735 0)
(-0.0274723 0.229336 0)
(-0.0364933 0.22312 0)
(0.0465603 0.176951 0)
(0.127046 0.138742 0)
(0.205601 0.109501 0)
(0.277489 0.0878766 0)
(0.341791 0.0715786 0)
(0.398485 0.0585822 0)
(0.447622 0.0473869 0)
(0.48896 0.0368461 0)
(0.521799 0.0260103 0)
(0.544927 0.0140228 0)
(0.5564 5.04572e-06 0)
(0.553891 -0.0170372 0)
(0.533366 -0.0390883 0)
(0.490589 -0.0704559 0)
(0.415322 -0.120934 0)
(0.304905 -0.213375 0)
(0.125881 -0.348318 0)
(0.0236681 -0.37879 0)
(0.21444 0.135797 0)
(0.285137 0.0984495 0)
(0.444655 0.0569152 0)
(0.547913 0.036584 0)
(0.621662 0.0241692 0)
(0.678249 0.0163208 0)
(0.722824 0.011336 0)
(0.758414 0.00800684 0)
(0.786855 0.00557321 0)
(0.809038 0.00357109 0)
(0.82515 0.00169391 0)
(0.834865 -0.000271551 0)
(0.837314 -0.00250682 0)
(0.831191 -0.00505125 0)
(0.813548 -0.00850249 0)
(0.781941 -0.0135056 0)
(0.72408 -0.0231768 0)
(0.635276 -0.0406015 0)
(0.43131 -0.0912947 0)
(0.270899 -0.153523 0)
)
;

boundaryField
{
    movingWall
    {
        type            calculated;
        value           uniform (1 0 0);
    }
    fixedWalls
    {
        type            calculated;
        value           uniform (0 0 0);
    }
    frontAndBack
    {
        type            empty;
    }
}


// ************************************************************************* //
