/*--------------------------------*- C++ -*----------------------------------*\
  =========                 |
  \\      /  F ield         | OpenFOAM: The Open Source CFD Toolbox
   \\    /   O peration     | Website:  https://openfoam.org
    \\  /    A nd           | Version:  13
     \\/     M anipulation  |
\*---------------------------------------------------------------------------*/
FoamFile
{
    format      ascii;
    class       volScalarField;
    location    "4";
    object      p;
}
// * * * * * * * * * * * * * * * * * * * * * * * * * * * * * * * * * * * * * //

dimensions      [0 2 -2 0 0 0 0];

internalField   nonuniform List<scalar> 
400
(
7.55956e-09
-0.000426808
-0.000835664
-0.0010869
-0.00108566
-0.000799386
-0.000221547
0.000640679
0.00176565
0.00311005
0.00460018
0.00612687
0.00754976
0.00871443
0.00948287
0.00977296
0.00959492
0.00907292
0.00842938
0.00796509
0.000421529
-1.58854e-05
-0.00036471
-0.000536229
-0.000491423
-0.000209752
0.000314285
0.00107686
0.00206234
0.00323612
0.00453617
0.00587224
0.00712116
0.00814957
0.00883749
0.00911366
0.00898667
0.00855914
0.00801061
0.00753655
0.000851761
0.000307891
-6.26301e-05
-0.000210111
-0.000153493
0.000109864
0.000581169
0.00126017
0.00213977
0.00319705
0.00438316
0.00561876
0.00679114
0.00777018
0.00843295
0.00869975
0.00856666
0.00811887
0.00749891
0.00686289
0.00111238
0.000411007
-3.80976e-05
-0.000209497
-0.000173426
5.53119e-05
0.000473367
0.00108521
0.00189471
0.002893
0.00404436
0.00528077
0.00648673
0.00752037
0.00823505
0.00852141
0.0083495
0.00779084
0.00697736
0.00608383
0.00103508
0.000172516
-0.000371263
-0.00058866
-0.000593833
-0.000415529
-5.91216e-05
0.000487204
0.00124145
0.0022126
0.00338299
0.00469281
0.00602597
0.00721806
0.00808154
0.00845508
0.00826253
0.00755511
0.00646932
0.00523322
0.0004904
-0.000526044
-0.00116879
-0.0014467
-0.00151246
-0.00140556
-0.0011306
-0.000665381
2.63293e-05
0.000977467
0.00219697
0.00363824
0.00519218
0.00666729
0.00781851
0.00840312
0.00826478
0.00741163
0.00598557
0.00430194
-0.000634501
-0.00179396
-0.00253648
-0.00288858
-0.00303882
-0.00303585
-0.00288186
-0.00254174
-0.00195621
-0.00105987
0.000194278
0.00179771
0.00365746
0.00556366
0.00720067
0.00820602
0.00828693
0.00735708
0.00553785
0.00326875
-0.00244172
-0.00373177
-0.00457468
-0.00501742
-0.0052845
-0.00543472
-0.00546844
-0.00533692
-0.00495356
-0.00420968
-0.00299998
-0.00126648
0.00094914
0.0034447
0.00583344
0.00758978
0.00819914
0.00738219
0.00516358
0.00214084
-0.00502163
-0.00642826
-0.00737184
-0.00792332
-0.00834689
-0.00871575
-0.00903255
-0.00923761
-0.00921552
-0.00880407
-0.00781526
-0.00608254
-0.00354104
-0.000327411
0.00313034
0.00611153
0.00776761
0.00746096
0.00495235
0.0010025
-0.00844958
-0.00995576
-0.0109952
-0.0116665
-0.0122828
-0.0129403
-0.0136526
-0.0143566
-0.0149116
-0.0150962
-0.0146165
-0.0131481
-0.0104482
-0.00648776
-0.00165493
0.00314737
0.00662377
0.00754003
0.00508207
9.16986e-05
-0.0127851
-0.014367
-0.0154812
-0.0162567
-0.0170745
-0.0180682
-0.0192753
-0.0206414
-0.0220109
-0.0231055
-0.0235117
-0.0227113
-0.0201818
-0.0156234
-0.00923205
-0.00199024
0.00430975
0.0075615
0.00587834
-6.82736e-05
-0.0180826
-0.0196994
-0.0208292
-0.0216319
-0.022594
-0.0239066
-0.0256464
-0.0277826
-0.030158
-0.0324484
-0.0341213
-0.0344398
-0.0325512
-0.0277515
-0.0198553
-0.00970921
0.000499561
0.0075891
0.00792466
0.00155044
-0.0244272
-0.0259923
-0.0270018
-0.0276426
-0.0285761
-0.0300763
-0.0322731
-0.0351687
-0.0386154
-0.0422557
-0.0454519
-0.047256
-0.0464557
-0.0418795
-0.0327814
-0.0195777
-0.00453992
0.00811627
0.0122708
0.00680634
-0.0320242
-0.0333303
-0.0339373
-0.034046
-0.0346129
-0.0360189
-0.0384504
-0.0419386
-0.0463416
-0.0512703
-0.0559927
-0.0593682
-0.0598363
-0.0558462
-0.045919
-0.0297895
-0.00936091
0.0105439
0.0207955
0.0187876
-0.0413873
-0.0419069
-0.0415531
-0.0404963
-0.0401654
-0.041049
-0.0433667
-0.0471487
-0.0522303
-0.0581704
-0.0641333
-0.0688109
-0.0704529
-0.0668308
-0.0561097
-0.0371229
-0.0109975
0.0176636
0.0367909
0.0422279
-0.0538095
-0.0522043
-0.0498124
-0.0465933
-0.0446423
-0.0444788
-0.0462807
-0.0500088
-0.055412
-0.0619564
-0.0686536
-0.074016
-0.0760174
-0.0721849
-0.0600755
-0.0377315
-0.00538195
0.0339246
0.0656004
0.0838919
-0.0720818
-0.064848
-0.0584557
-0.051694
-0.0473289
-0.0456467
-0.0466283
-0.0500461
-0.0554807
-0.0622085
-0.0690732
-0.074362
-0.075795
-0.0705587
-0.0557399
-0.0287247
0.0111129
0.064588
0.113466
0.152329
-0.105022
-0.0819458
-0.0679072
-0.0555033
-0.0477647
-0.0441636
-0.0441817
-0.0472047
-0.0525127
-0.0591327
-0.0656808
-0.0702069
-0.0701762
-0.0623921
-0.043489
-0.0098997
0.04054
0.110225
0.183464
0.258611
-0.166085
-0.0987978
-0.0725144
-0.0527762
-0.0419143
-0.0373457
-0.0373292
-0.0406468
-0.0462551
-0.0529749
-0.05927
-0.0630509
-0.061664
-0.0512193
-0.0281773
0.0125233
0.0753334
0.167182
0.280128
0.440525
-0.400122
-0.137234
-0.0731603
-0.0456293
-0.0316947
-0.026889
-0.0276942
-0.0319399
-0.0382847
-0.0454558
-0.0518713
-0.0554193
-0.0533616
-0.04246
-0.0173601
0.0287162
0.104291
0.231501
0.422083
0.788429
)
;

boundaryField
{
    movingWall
    {
        type            zeroGradient;
    }
    fixedWalls
    {
        type            zeroGradient;
    }
    frontAndBack
    {
        type            empty;
    }
}


// ************************************************************************* //
