/*--------------------------------*- C++ -*----------------------------------*\
  =========                 |
  \\      /  F ield         | OpenFOAM: The Open Source CFD Toolbox
   \\    /   O peration     | Website:  https://openfoam.org
    \\  /    A nd           | Version:  13
     \\/     M anipulation  |
\*---------------------------------------------------------------------------*/
FoamFile
{
    format      ascii;
    class       surfaceScalarField;
    location    "4";
    object      phi;
}
// * * * * * * * * * * * * * * * * * * * * * * * * * * * * * * * * * * * * * //

dimensions      [0 3 -1 0 0 0 0];

internalField   nonuniform List<scalar> 
760
(
-8.82683e-07
8.826e-07
-3.89718e-05
3.80891e-05
-0.000113676
7.47044e-05
-0.000212169
9.84928e-05
-0.000322116
0.000109947
-0.000433325
0.000111209
-0.000537226
0.000103901
-0.000625919
8.86923e-05
-0.000691557
6.56383e-05
-0.000726459
3.49024e-05
-0.000724009
-2.45072e-06
-0.000680268
-4.37406e-05
-0.000595947
-8.43215e-05
-0.000478066
-0.00011788
-0.000340572
-0.000137495
-0.000203119
-0.000137453
-8.76749e-05
-0.000115444
-1.31175e-05
-7.45574e-05
1.21337e-05
-2.52512e-05
1.21337e-05
-3.98712e-05
4.07539e-05
-0.000169145
0.000167363
-0.000372393
0.000277953
-0.000624202
0.000350301
-0.000898863
0.000384609
-0.00117332
0.000385668
-0.001427
0.000357577
-0.00164066
0.000302353
-0.0017958
0.000220778
-0.00187522
0.000114326
-0.00186516
-1.25154e-05
-0.00175812
-0.000150781
-0.00155712
-0.000285314
-0.00127841
-0.000396592
-0.000952435
-0.000463471
-0.000621223
-0.000468666
-0.00033136
-0.000405307
-0.000123057
-0.000282861
-1.73507e-05
-0.000130957
-5.21697e-06
-8.53895e-05
0.000126143
-0.000306693
0.000388666
-0.000626967
0.000598228
-0.00100889
0.000732226
-0.0014177
0.000793415
-0.00182217
0.000790143
-0.00219391
0.000729311
-0.00250607
0.000614519
-0.00273291
0.000447612
-0.00285065
0.000232068
-0.00284022
-2.29483e-05
-0.00269109
-0.000299912
-0.00240635
-0.000570053
-0.00200671
-0.000796233
-0.00153225
-0.000937925
-0.00103976
-0.000961163
-0.000594035
-0.000851027
-0.000253799
-0.000623096
-5.53522e-05
-0.000329404
-6.05692e-05
-0.000126894
0.000253037
-0.000434667
0.00069644
-0.000863265
0.00102683
-0.00136254
0.0012315
-0.00188999
0.00132087
-0.00240887
0.00130902
-0.00288592
0.00120636
-0.00328942
0.00101802
-0.00358836
0.00074655
-0.00375329
0.000396994
-0.00375931
-1.69289e-05
-0.00359025
-0.000468964
-0.00324542
-0.000914889
-0.00274503
-0.00129662
-0.00213432
-0.00154863
-0.00148252
-0.00161296
-0.000874013
-0.00145954
-0.000391159
-0.00110595
-9.31221e-05
-0.000627441
-0.000153691
-0.000163983
0.00041702
-0.000551332
0.00108379
-0.0010805
0.00155599
-0.0016888
0.0018398
-0.00232703
0.0019591
-0.00295473
0.00193672
-0.00353594
0.00178758
-0.004036
0.00151808
-0.00441977
0.00113032
-0.00465193
0.00062916
-0.00469971
3.08443e-05
-0.00453785
-0.000630822
-0.00415636
-0.00129638
-0.00356923
-0.00188376
-0.00282233
-0.00229552
-0.00199642
-0.00243887
-0.0011999
-0.00225606
-0.000548235
-0.00175761
-0.000133958
-0.00104172
-0.00028765
-0.0001974
0.00061442
-0.000657759
0.00154415
-0.00128035
0.00217859
-0.0019912
0.00255065
-0.00273565
0.00270355
-0.00347122
0.00267229
-0.00416118
0.00247754
-0.00476957
0.00212647
-0.00525804
0.00161879
-0.00558505
0.000956166
-0.00570765
0.000153446
-0.00558749
-0.000750982
-0.00519905
-0.00168481
-0.00454281
-0.00254
-0.00365876
-0.00317957
-0.00263641
-0.00346122
-0.00161257
-0.00327991
-0.00074827
-0.00262191
-0.000185448
-0.00160454
-0.000473098
-0.000227642
0.000842062
-0.000754599
0.0020711
-0.00146311
0.0028871
-0.00226941
0.00335694
-0.00311493
0.00354907
-0.00395694
0.0035143
-0.00475988
0.00328048
-0.00548836
0.00285494
-0.00610214
0.00223257
-0.00655372
0.00140775
-0.00678901
0.000388737
-0.00675263
-0.000787369
-0.00639769
-0.00203975
-0.0057024
-0.00323528
-0.00469089
-0.00419108
-0.00345371
-0.0046984
-0.00215645
-0.00457717
-0.00101921
-0.00375915
-0.000257127
-0.00236662
-0.000730224
-0.000254714
0.00109678
-0.000841184
0.00265758
-0.00162627
0.00367218
-0.00251773
0.0042484
-0.00345457
0.00448591
-0.0043956
0.00445533
-0.00530858
0.00419345
-0.00616095
0.00370732
-0.0069129
0.00298452
-0.00751286
0.00200771
-0.00789639
0.000772271
-0.00799002
-0.000693743
-0.00772108
-0.00230869
-0.00703658
-0.00391979
-0.00593104
-0.00529662
-0.00448068
-0.00614876
-0.00287104
-0.00618681
-0.00139074
-0.00523945
-0.000360117
-0.00339724
-0.00109034
-0.000278419
0.00137519
-0.000916029
0.00329519
-0.00176512
0.00452127
-0.00272565
0.00520893
-0.00373536
0.00549562
-0.0047563
0.00547627
-0.0057617
0.00519885
-0.00672471
0.00467033
-0.00760942
0.00386923
-0.00836429
0.00276258
-0.00891872
0.00132671
-0.00918412
-0.000428352
-0.0090618
-0.002431
-0.00846099
-0.0045206
-0.00733109
-0.00642653
-0.00570987
-0.00776998
-0.00377876
-0.00811792
-0.00189087
-0.00712734
-0.00050744
-0.00478067
-0.00159778
-0.000299113
0.00167431
-0.000978488
0.00397456
-0.00187508
0.00541786
-0.00288073
0.00621458
-0.00393258
0.00654748
-0.00499734
0.00654104
-0.00605591
0.00625742
-0.00709032
0.00570474
-0.00807322
0.00485213
-0.00895959
0.00364895
-0.00968076
0.00204787
-0.0101413
3.22314e-05
-0.0102233
-0.00234907
-0.00979755
-0.00494633
-0.00875562
-0.00746846
-0.00706688
-0.00945872
-0.00486581
-0.010319
-0.00253902
-0.00945413
-0.000714132
-0.00660555
-0.00231191
-0.000319017
0.00199332
-0.00103161
0.00468715
-0.00195577
0.00634203
-0.00297365
0.00723245
-0.00402227
0.0075961
-0.0050744
0.00759316
-0.00612067
0.00730368
-0.00715526
0.00673933
-0.00816473
0.00586159
-0.00911869
0.00460292
-0.00996166
0.00289083
-0.0106061
0.000676715
-0.0109281
-0.00202715
-0.0107708
-0.00510363
-0.00996441
-0.00827481
-0.00838265
-0.0110405
-0.0060552
-0.0126464
-0.00333227
-0.0121771
-0.000996019
-0.00894181
-0.00330793
-0.000344281
0.00233761
-0.00108617
0.00542904
-0.00201635
0.0072722
-0.00300478
0.00822088
-0.00398965
0.00858098
-0.00495187
0.00855538
-0.00589413
0.00824595
-0.00682589
0.00767109
-0.00775257
0.00678827
-0.00866662
0.00551697
-0.00953824
0.00376246
-0.0103048
0.00144328
-0.0108582
-0.00147374
-0.0110362
-0.00492568
-0.0106211
-0.00868984
-0.00937944
-0.0122822
-0.00717823
-0.0148477
-0.00422272
-0.0151326
-0.00136514
-0.0117994
-0.00467308
-0.000388188
0.00272579
-0.00116591
0.00620676
-0.0020811
0.00818739
-0.00298992
0.0091297
-0.00383598
0.00942704
-0.00461281
0.00933221
-0.0053385
0.00897163
-0.00604053
0.00837312
-0.0067468
0.00749455
-0.00747846
0.00624862
-0.00824133
0.00452533
-0.00901389
0.00221584
-0.00972753
-0.0007601
-0.0102473
-0.00440592
-0.0103421
-0.00859504
-0.00968908
-0.0129352
-0.0079597
-0.016577
-0.00508906
-0.0180032
-0.00181922
-0.0150692
-0.0064923
-0.000476108
0.0032019
-0.00131297
0.00704362
-0.00219228
0.0090667
-0.00295992
0.00989735
-0.00357643
0.0100436
-0.00405715
0.00981294
-0.00444106
0.00935554
-0.00477637
0.00870844
-0.00511475
0.00783292
-0.00550755
0.00664143
-0.00599991
0.00501768
-0.00662083
0.00283676
-0.00735739
-2.35401e-05
-0.00814233
-0.00362099
-0.008779
-0.00795837
-0.00891167
-0.0128025
-0.00803426
-0.0174544
-0.00571393
-0.0203235
-0.00232328
-0.0184599
-0.00881558
-0.000653464
0.00385537
-0.00159082
0.00798098
-0.00240146
0.00987734
-0.00294061
0.0104365
-0.00321101
0.010314
-0.00326666
0.00986858
-0.00317589
0.00926478
-0.00301013
0.00854267
-0.00284324
0.00766603
-0.00275291
0.00655111
-0.00281888
0.00508365
-0.00311721
0.00313508
-0.00371195
0.000571205
-0.00460246
-0.00273048
-0.0056971
-0.00686373
-0.00669353
-0.0118061
-0.0069944
-0.0171536
-0.00578052
-0.0215374
-0.00278385
-0.0214565
-0.0115994
-0.000993278
0.00484865
-0.00206901
0.00905671
-0.0027217
0.01053
-0.00287607
0.0105909
-0.00262669
0.0100646
-0.00209266
0.00933455
-0.00138227
0.00855439
-0.000590631
0.00775104
0.000191064
0.00688433
0.000869231
0.00587294
0.00134013
0.00461275
0.00149202
0.0029832
0.00120918
0.000854045
0.00039606
-0.00191736
-0.000978923
-0.00548874
-0.0027669
-0.0100181
-0.00443698
-0.0154835
-0.00487795
-0.0210964
-0.00301649
-0.023318
-0.0146159
-0.00158786
0.00643651
-0.00272107
0.0101899
-0.00293178
0.0107407
-0.00237363
0.0100327
-0.00131567
0.00900662
3.03207e-05
0.00798856
0.00151651
0.00706819
0.00303319
0.00623436
0.00448737
0.00543015
0.00578397
0.00457633
0.00681537
0.00358134
0.00745459
0.00234397
0.00755253
0.000756114
0.00694789
-0.00131272
0.00548454
-0.0040254
0.00310767
-0.00764121
0.000122974
-0.0124988
-0.00245577
-0.0185177
-0.00266411
-0.0231097
-0.01728
-0.00236884
0.00880535
-0.00296434
0.0107854
-0.00192812
0.00970451
-1.91616e-05
0.00812376
0.0022596
0.00672786
0.00463892
0.00560924
0.00697881
0.0047283
0.00919933
0.00401385
0.0112384
0.00339104
0.0130279
0.00278689
0.014479
0.00213022
0.0154732
0.00134974
0.0158557
0.000373672
0.0154391
-0.000896118
0.0139879
-0.0025742
0.0112535
-0.00490678
0.00712488
-0.00837022
0.00227022
-0.013663
-0.00105695
-0.0197825
-0.018337
-0.00196803
0.0107734
0.000386984
0.00843041
0.0042689
0.0058226
0.00813467
0.00425799
0.011699
0.00316348
0.014894
0.00241428
0.0177258
0.00189648
0.0202201
0.00151961
0.02239
0.00122106
0.0242223
0.000954653
0.0256699
0.000682613
0.0266461
0.000373552
0.0270089
1.08322e-05
0.0266066
-0.000493818
0.025178
-0.00114556
0.0223737
-0.00210257
0.0177179
-0.0037144
0.0107919
-0.00673706
0.00295395
-0.0119445
-0.015383
0.0107734
0.0192038
0.0250264
0.0292844
0.0324479
0.0348621
0.0367586
0.0382782
0.0394993
0.0404539
0.0411366
0.0415101
0.0415209
0.0410271
0.0398816
0.037779
0.0340646
0.0273275
0.015383
)
;

boundaryField
{
    movingWall
    {
        type            calculated;
        value           uniform 0;
    }
    fixedWalls
    {
        type            calculated;
        value           uniform 0;
    }
    frontAndBack
    {
        type            empty;
    }
}


// ************************************************************************* //
