/*--------------------------------*- C++ -*----------------------------------*\
  =========                 |
  \\      /  F ield         | OpenFOAM: The Open Source CFD Toolbox
   \\    /   O peration     | Website:  https://openfoam.org
    \\  /    A nd           | Version:  13
     \\/     M anipulation  |
\*---------------------------------------------------------------------------*/
FoamFile
{
    format      ascii;
    class       surfaceScalarField;
    location    "4";
    object      phi_0;
}
// * * * * * * * * * * * * * * * * * * * * * * * * * * * * * * * * * * * * * //

dimensions      [0 3 -1 0 0 0 0];

internalField   nonuniform List<scalar> 
760
(
-8.93917e-07
8.93833e-07
-3.89716e-05
3.80777e-05
-0.000113627
7.46553e-05
-0.00021204
9.84135e-05
-0.000321887
0.000109847
-0.000432983
0.000111096
-0.000536768
0.000103786
-0.000625355
8.85863e-05
-0.000690912
6.5557e-05
-0.000725774
3.48618e-05
-0.000723337
-2.43712e-06
-0.00067967
-4.36669e-05
-0.000595477
-8.41931e-05
-0.00047776
-0.000117716
-0.000340435
-0.000137326
-0.00020312
-0.000137315
-8.77553e-05
-0.000115365
-1.32065e-05
-7.45488e-05
1.20867e-05
-2.52932e-05
1.20867e-05
-3.9855e-05
4.07488e-05
-0.000169032
0.000167255
-0.000372104
0.000277727
-0.000623672
0.000349981
-0.000898047
0.000384222
-0.0011722
0.000385247
-0.00142557
0.000357156
-0.00163896
0.000301977
-0.0017939
0.000220497
-0.00187323
0.000114192
-0.00186321
-1.24615e-05
-0.00175635
-0.000150524
-0.00155567
-0.000284874
-0.00127735
-0.00039603
-0.000951796
-0.000462884
-0.000620947
-0.000468163
-0.000331332
-0.00040498
-0.000123131
-0.00028275
-1.74037e-05
-0.000131021
-5.31695e-06
-8.53174e-05
0.000126066
-0.000306411
0.000388349
-0.000626363
0.000597679
-0.00100788
0.000731496
-0.00141622
0.000792562
-0.0018202
0.00078923
-0.00219146
0.000728413
-0.00250321
0.000613725
-0.00272973
0.000447025
-0.00284733
0.000231789
-0.00283695
-2.28437e-05
-0.00268808
-0.000299394
-0.00240379
-0.000569161
-0.00200474
-0.000795084
-0.00153092
-0.000936701
-0.00103901
-0.000960073
-0.000593736
-0.000850255
-0.000253754
-0.000622732
-5.53785e-05
-0.000329397
-6.06955e-05
-0.000126761
0.000252827
-0.000434201
0.000695789
-0.000862321
0.0010258
-0.00136101
0.00123019
-0.00188782
0.00131937
-0.00240603
0.00130744
-0.00288244
0.00120482
-0.00328537
0.00101666
-0.00358389
0.000745542
-0.0037486
0.000396497
-0.00375465
-1.67912e-05
-0.0035859
-0.000468142
-0.00324162
-0.00091344
-0.00274199
-0.00129472
-0.00213214
-0.00154655
-0.00148116
-0.00161105
-0.000873334
-0.00145808
-0.000390933
-0.00110513
-9.30998e-05
-0.000627229
-0.000153795
-0.000163792
0.000416619
-0.000550689
0.00108269
-0.00107923
0.00155434
-0.00168679
0.00183775
-0.00232421
0.00195679
-0.00295107
0.0019343
-0.00353148
0.00178522
-0.00403082
0.001516
-0.00441403
0.00112876
-0.00464589
0.00062835
-0.00469364
3.09629e-05
-0.00453209
-0.000629692
-0.00415123
-0.0012943
-0.00356499
-0.00188096
-0.00281916
-0.00229239
-0.00199433
-0.00243587
-0.00119875
-0.00225366
-0.000547783
-0.0017561
-0.000133875
-0.00104114
-0.00028767
-0.000197161
0.000613779
-0.000656972
0.0015425
-0.00127882
0.00217619
-0.0019888
0.00254772
-0.0027323
0.00270029
-0.00346689
0.00266889
-0.00415589
0.00247423
-0.00476342
0.00212353
-0.00525121
0.00161655
-0.00557779
0.000954933
-0.0057003
0.000153468
-0.00558041
-0.000749579
-0.00519262
-0.00168209
-0.00453736
-0.00253622
-0.00365454
-0.00317521
-0.00263351
-0.0034569
-0.00161089
-0.00327628
-0.000747554
-0.00261944
-0.000185293
-0.0016034
-0.000472963
-0.000227373
0.000841152
-0.000753725
0.00206885
-0.00146142
0.00288389
-0.00226677
0.00335307
-0.00311125
0.00354477
-0.00395218
0.00350982
-0.00475407
0.00327611
-0.00548158
0.00285104
-0.00609457
0.00222954
-0.00654563
0.00140599
-0.00678074
0.000388574
-0.00674455
-0.000785764
-0.00639022
-0.00203642
-0.00569593
-0.00323051
-0.00468572
-0.00418542
-0.00345002
-0.0046926
-0.00215423
-0.00457207
-0.0010182
-0.00375547
-0.000256889
-0.00236471
-0.000729852
-0.000254444
0.0010956
-0.000840308
0.00265471
-0.00162457
0.00366816
-0.00251507
0.00424357
-0.00345086
0.00448056
-0.0043908
0.00444976
-0.0053027
0.00418801
-0.00615408
0.00370243
-0.00690521
0.00298067
-0.00750458
0.00200537
-0.00788786
0.000771847
-0.00798159
-0.000692031
-0.00771315
-0.00230486
-0.00702953
-0.00391413
-0.00592522
-0.00528972
-0.00447637
-0.00614146
-0.00286832
-0.00618012
-0.00138944
-0.00523434
-0.000359789
-0.00339437
-0.00108964
-0.000278182
0.00137378
-0.000915256
0.00329179
-0.00176361
0.00451651
-0.00272328
0.00520323
-0.00373203
0.00548932
-0.00475197
0.0054697
-0.00575638
0.00519242
-0.00671849
0.00466453
-0.00760243
0.00386461
-0.00835675
0.0027597
-0.0089109
0.001326
-0.00917631
-0.000426629
-0.00905431
-0.00242685
-0.00845415
-0.0045143
-0.00732522
-0.00641865
-0.0057053
-0.00776138
-0.00377571
-0.00810971
-0.00188932
-0.00712073
-0.000507018
-0.00477667
-0.00159666
-0.000298949
0.00167273
-0.000977939
0.00397078
-0.00187399
0.00541256
-0.00287897
0.00620821
-0.00393008
0.00654043
-0.00499406
0.00653368
-0.00605187
0.00625023
-0.00708559
0.00569825
-0.00806792
0.00484695
-0.00895389
0.00364566
-0.00967482
0.00204692
-0.0101353
3.39013e-05
-0.0102174
-0.00234481
-0.00979196
-0.00493973
-0.00875055
-0.00746005
-0.00706265
-0.00944928
-0.00486275
-0.0103096
-0.00253734
-0.00944615
-0.000713629
-0.00660038
-0.00231029
-0.000318965
0.00199169
-0.0010314
0.00468321
-0.0019553
0.00633646
-0.00297282
0.00722574
-0.00402104
0.00758865
-0.00507274
0.00758539
-0.00611861
0.00729609
-0.00715286
0.00673251
-0.00816208
0.00585616
-0.00911588
0.00459947
-0.00995875
0.00288979
-0.0106031
0.000678297
-0.010925
-0.002023
-0.0107675
-0.00509714
-0.00996115
-0.00826645
-0.00837956
-0.0110309
-0.00605265
-0.0126365
-0.00333066
-0.0121681
-0.000995472
-0.00893557
-0.00330576
-0.000344369
0.00233606
-0.00108639
0.00542523
-0.00201666
0.00726673
-0.00300514
0.00821422
-0.00399003
0.00857354
-0.00495227
0.00854763
-0.00589458
0.0082384
-0.00682643
0.00766435
-0.00775324
0.00678297
-0.00866742
0.00551365
-0.00953912
0.00376149
-0.0103056
0.0014448
-0.0108588
-0.00146984
-0.0110363
-0.00491967
-0.0106206
-0.00868211
-0.0093783
-0.0122732
-0.00717679
-0.014838
-0.00422151
-0.0151234
-0.00136463
-0.0117924
-0.00467039
-0.000388427
0.00272449
-0.00116659
0.00620339
-0.00208227
0.00818241
-0.00299158
0.00912353
-0.00383813
0.00942009
-0.00461546
0.00932495
-0.00534166
0.0089646
-0.0060442
0.0083669
-0.00675096
0.00748972
-0.007483
0.00624569
-0.0082461
0.00452459
-0.00901865
0.00221734
-0.00973191
-0.000756583
-0.010251
-0.00440062
-0.0103447
-0.00858836
-0.00969046
-0.0129274
-0.00795992
-0.0165686
-0.00508861
-0.0179947
-0.00181886
-0.0150622
-0.00648924
-0.000476482
0.00320097
-0.00131407
0.00704098
-0.00219423
0.00906258
-0.00296279
0.00989208
-0.00358022
0.0100375
-0.00406188
0.00980661
-0.0044467
0.00934941
-0.00478285
0.00870306
-0.00512194
0.00782881
-0.00551529
0.00663904
-0.00600794
0.00501724
-0.00662888
0.00283829
-0.00736486
-2.06093e-05
-0.00814904
-0.00361643
-0.00878448
-0.00795291
-0.00891554
-0.0127964
-0.00803637
-0.0174477
-0.00571455
-0.0203166
-0.00232321
-0.0184535
-0.00881245
-0.000653921
0.00385489
-0.00159219
0.00797924
-0.00240396
0.00987435
-0.00294433
0.0104324
-0.00321599
0.0103092
-0.00327287
0.00986349
-0.00318329
0.00925982
-0.00301855
0.00853832
-0.00285246
0.00766272
-0.00276267
0.00654924
-0.00282883
0.0050834
-0.00312696
0.00313642
-0.00372141
0.000573838
-0.00461101
-0.00272683
-0.0057044
-0.00685952
-0.00669918
-0.0118016
-0.00699809
-0.0171488
-0.00578221
-0.0215324
-0.00278416
-0.0214516
-0.0115966
-0.000993722
0.00484861
-0.00207039
0.00905591
-0.00272428
0.0105282
-0.00288001
0.0105882
-0.00263203
0.0100612
-0.00209935
0.00933081
-0.00139027
0.00855074
-0.000599716
0.00774777
0.000181163
0.00688184
0.000858894
0.00587151
0.00132972
0.00461258
0.00148187
0.00298427
0.00119957
0.000856135
0.000387299
-0.00191456
-0.000986545
-0.00548567
-0.0027731
-0.010015
-0.00444148
-0.0154804
-0.00488037
-0.0210935
-0.00301717
-0.0233148
-0.0146138
-0.00158816
0.00643677
-0.0027221
0.0101898
-0.00293384
0.01074
-0.00237693
0.0100313
-0.00132032
0.0090046
2.42641e-05
0.00798623
0.00150929
0.00706572
0.00302494
0.00623212
0.00447836
0.00542842
0.00577455
0.00457532
0.00680593
0.0035812
0.00744549
0.0023447
0.00754406
0.000757563
0.0069403
-0.00131079
0.00547797
-0.00402335
0.0031023
-0.00763935
0.000119249
-0.0124974
-0.00245818
-0.0185161
-0.00266496
-0.023108
-0.0172787
-0.00236888
0.00880566
-0.00296471
0.0107857
-0.0019291
0.00970438
-2.10099e-05
0.00812317
0.00225668
0.00672691
0.00463489
0.00560802
0.00697364
0.00472697
0.00919316
0.0040126
0.0112315
0.00339006
0.0130205
0.00278631
0.0144716
0.00213014
0.0154661
0.00135017
0.0158492
0.000374508
0.0154334
-0.000895002
0.0139831
-0.00257306
0.0112496
-0.00490583
0.00712182
-0.00836963
0.00226828
-0.0136626
-0.00105778
-0.019782
-0.0183365
-0.00196786
0.0107735
0.000387225
0.00843058
0.00426896
0.00582265
0.00813427
0.00425786
0.011698
0.0031632
0.0148921
0.00241388
0.0177231
0.00189604
0.0202165
0.0015192
0.0223858
0.00122074
0.0242176
0.000954487
0.0256651
0.000682637
0.0266415
0.000373764
0.0270049
1.11104e-05
0.0266033
-0.00049338
0.0251754
-0.00114517
0.0223718
-0.00210228
0.0177165
-0.00371429
0.010791
-0.00673705
0.00295353
-0.0119445
-0.015383
0.0107735
0.0192041
0.0250267
0.0292846
0.0324478
0.0348617
0.0367577
0.0382769
0.0394977
0.0404522
0.0411348
0.0415086
0.0415197
0.0410263
0.0398811
0.0377788
0.0340645
0.0273275
0.015383
)
;

boundaryField
{
    movingWall
    {
        type            calculated;
        value           uniform 0;
    }
    fixedWalls
    {
        type            calculated;
        value           uniform 0;
    }
    frontAndBack
    {
        type            empty;
    }
}


// ************************************************************************* //
