/*--------------------------------*- C++ -*----------------------------------*\
  =========                 |
  \\      /  F ield         | OpenFOAM: The Open Source CFD Toolbox
   \\    /   O peration     | Website:  https://openfoam.org
    \\  /    A nd           | Version:  13
     \\/     M anipulation  |
\*---------------------------------------------------------------------------*/
FoamFile
{
    format      ascii;
    class       volVectorField;
    location    "4";
    object      U;
}
// * * * * * * * * * * * * * * * * * * * * * * * * * * * * * * * * * * * * * //

dimensions      [0 1 -1 0 0 0 0];

internalField   nonuniform List<vector> 
400
(
(0.000137592 -0.000136343 0)
(-0.000200719 2.37716e-05 0)
(-0.00139139 0.000191102 0)
(-0.00317957 0.000292216 0)
(-0.00531558 0.000339666 0)
(-0.00757078 0.000351009 0)
(-0.00976038 0.000336066 0)
(-0.0117231 0.000297276 0)
(-0.0133025 0.000232407 0)
(-0.0143409 0.000138448 0)
(-0.0146896 1.59845e-05 0)
(-0.0142349 -0.000128363 0)
(-0.0129364 -0.000276451 0)
(-0.0108663 -0.000402019 0)
(-0.00823542 -0.000474014 0)
(-0.0053901 -0.000465179 0)
(-0.00276607 -0.000362142 0)
(-0.000794929 -0.000175174 0)
(0.000214994 4.87905e-05 0)
(0.000221061 0.000208352 0)
(-2.6762e-05 0.000198276 0)
(-0.00167888 0.00160489 0)
(-0.00511232 0.00294181 0)
(-0.00979475 0.00382498 0)
(-0.0151793 0.00425341 0)
(-0.0207768 0.00429465 0)
(-0.026155 0.00400471 0)
(-0.0309204 0.00340859 0)
(-0.0346959 0.0025115 0)
(-0.0371181 0.0013241 0)
(-0.0378647 -0.000108179 0)
(-0.036706 -0.00168158 0)
(-0.0335802 -0.00322027 0)
(-0.0286701 -0.00448935 0)
(-0.0224458 -0.00523368 0)
(-0.0156541 -0.00524471 0)
(-0.00922436 -0.00444095 0)
(-0.00408122 -0.00294125 0)
(-0.000895159 -0.00112733 0)
(0.000126439 0.000242887 0)
(-0.000226899 0.00147362 0)
(-0.00335126 0.00512743 0)
(-0.00893087 0.00820744 0)
(-0.0161424 0.0102161 0)
(-0.0242141 0.0111601 0)
(-0.0324943 0.011162 0)
(-0.0403926 0.0103287 0)
(-0.0473616 0.00871568 0)
(-0.0528747 0.00634899 0)
(-0.0564275 0.00327694 0)
(-0.0575756 -0.000369258 0)
(-0.0560005 -0.00432553 0)
(-0.0516053 -0.00817161 0)
(-0.0446131 -0.0113585 0)
(-0.0356322 -0.0132955 0)
(-0.0256568 -0.0134993 0)
(-0.015958 -0.0117757 0)
(-0.00784437 -0.00838449 0)
(-0.00235211 -0.00413467 0)
(-1.84358e-06 -0.000476496 0)
(-0.000395053 0.00361395 0)
(-0.0049002 0.0104539 0)
(-0.012494 0.0157447 0)
(-0.0220165 0.0190886 0)
(-0.0324808 0.0205887 0)
(-0.0431178 0.0204558 0)
(-0.0532383 0.0188581 0)
(-0.0621997 0.0158836 0)
(-0.0693747 0.0115799 0)
(-0.0741494 0.00603728 0)
(-0.0759624 -0.000514846 0)
(-0.0743765 -0.00762426 0)
(-0.0691927 -0.0145788 0)
(-0.0605817 -0.0204389 0)
(-0.0491879 -0.0241751 0)
(-0.0361765 -0.0249119 0)
(-0.0231452 -0.0222446 0)
(-0.0118533 -0.0165338 0)
(-0.00384308 -0.00904845 0)
(-9.48673e-05 -0.00195508 0)
(-0.000535974 0.0065403 0)
(-0.00629675 0.0174378 0)
(-0.0157589 0.025359 0)
(-0.0274282 0.0301998 0)
(-0.0401157 0.032274 0)
(-0.0529642 0.0319347 0)
(-0.0652284 0.0294292 0)
(-0.0762145 0.0248749 0)
(-0.0852281 0.0183259 0)
(-0.0915575 0.00989299 0)
(-0.0945025 -0.000117354 0)
(-0.0934522 -0.011073 0)
(-0.0880141 -0.0219551 0)
(-0.0781861 -0.0313702 0)
(-0.0645363 -0.0377261 0)
(-0.048335 -0.0395788 0)
(-0.0315367 -0.0361254 0)
(-0.0164986 -0.0277045 0)
(-0.0054962 -0.0160526 0)
(-0.000166055 -0.00419046 0)
(-0.00065885 0.0101692 0)
(-0.00755978 0.0259452 0)
(-0.0187483 0.036911 0)
(-0.0324221 0.0434224 0)
(-0.0472147 0.0461214 0)
(-0.0622103 0.0455688 0)
(-0.0766452 0.0421142 0)
(-0.0898127 0.0358967 0)
(-0.10098 0.0269454 0)
(-0.109345 0.0153435 0)
(-0.114044 0.00141901 0)
(-0.11423 -0.0140696 0)
(-0.109214 -0.0298066 0)
(-0.0986776 -0.0438932 0)
(-0.0829646 -0.0540246 0)
(-0.0633406 -0.0579307 0)
(-0.0421184 -0.0540976 0)
(-0.0224253 -0.0425993 0)
(-0.00759583 -0.0256199 0)
(-0.000246966 -0.00731039 0)
(-0.000768407 0.0144336 0)
(-0.00870389 0.0358496 0)
(-0.0214727 0.0502612 0)
(-0.0369977 0.0586331 0)
(-0.0537649 0.0620527 0)
(-0.0708321 0.0613595 0)
(-0.0874559 0.0570318 0)
(-0.102957 0.0492178 0)
(-0.116597 0.0378768 0)
(-0.127503 0.0229913 0)
(-0.134644 0.0048194 0)
(-0.13689 -0.0158461 0)
(-0.133155 -0.0374512 0)
(-0.122662 -0.0575746 0)
(-0.10533 -0.0730452 0)
(-0.0822212 -0.0804398 0)
(-0.0559022 -0.077062 0)
(-0.0303909 -0.0622747 0)
(-0.0105031 -0.038573 0)
(-0.000376362 -0.0116157 0)
(-0.000865897 0.0192718 0)
(-0.00972748 0.0470201 0)
(-0.0239067 0.0652481 0)
(-0.0410797 0.0756705 0)
(-0.0596127 0.0799382 0)
(-0.0785701 0.0792448 0)
(-0.0972684 0.0742281 0)
(-0.1151 0.0650332 0)
(-0.13137 0.0514974 0)
(-0.145177 0.0334134 0)
(-0.155354 0.0108496 0)
(-0.160489 -0.0154998 0)
(-0.159053 -0.0439653 0)
(-0.149679 -0.0716542 0)
(-0.131633 -0.0944299 0)
(-0.10546 -0.107369 0)
(-0.0736862 -0.105958 0)
(-0.0411625 -0.0880842 0)
(-0.0146379 -0.0561183 0)
(-0.0006035 -0.0176152 0)
(-0.000951817 0.0246183 0)
(-0.0106215 0.0593036 0)
(-0.0259995 0.0816585 0)
(-0.0445293 0.0942827 0)
(-0.0644758 0.0995145 0)
(-0.0849382 0.098986 0)
(-0.105331 0.0935324 0)
(-0.12517 0.0832917 0)
(-0.143865 0.0679318 0)
(-0.160566 0.0469673 0)
(-0.174054 0.0201448 0)
(-0.182714 -0.0121095 0)
(-0.184611 -0.0482005 0)
(-0.177737 -0.0849264 0)
(-0.160494 -0.11722 0)
(-0.132504 -0.138402 0)
(-0.0957065 -0.141409 0)
(-0.0553747 -0.121479 0)
(-0.0204777 -0.0798233 0)
(-0.00100011 -0.0260596 0)
(-0.00103118 0.0304046 0)
(-0.0113951 0.0725188 0)
(-0.0277164 0.0992027 0)
(-0.047197 0.114077 0)
(-0.0680046 0.120305 0)
(-0.0892951 0.120053 0)
(-0.110617 0.114406 0)
(-0.13166 0.103506 0)
(-0.152017 0.086828 0)
(-0.170997 0.0635411 0)
(-0.187481 0.0329543 0)
(-0.19982 -0.00495446 0)
(-0.205841 -0.0489217 0)
(-0.202977 -0.0957281 0)
(-0.188664 -0.139636 0)
(-0.161187 -0.172199 0)
(-0.121132 -0.183176 0)
(-0.0732655 -0.163598 0)
(-0.0285367 -0.111498 0)
(-0.00168016 -0.0379852 0)
(-0.00112272 0.0365815 0)
(-0.0121194 0.0864742 0)
(-0.029108 0.117511 0)
(-0.0490134 0.134488 0)
(-0.0698944 0.141557 0)
(-0.0909865 0.141533 0)
(-0.112006 0.135817 0)
(-0.132866 0.124594 0)
(-0.153425 0.107154 0)
(-0.173284 0.0823064 0)
(-0.191614 0.0488513 0)
(-0.207003 0.00616548 0)
(-0.217329 -0.0450951 0)
(-0.219736 -0.102119 0)
(-0.21081 -0.159028 0)
(-0.187249 -0.206031 0)
(-0.147451 -0.229489 0)
(-0.0942157 -0.214585 0)
(-0.0392687 -0.152893 0)
(-0.00282753 -0.0547525 0)
(-0.00127469 0.0431733 0)
(-0.0129939 0.101023 0)
(-0.0304074 0.136159 0)
(-0.0501067 0.154767 0)
(-0.0700297 0.162211 0)
(-0.0895348 0.162084 0)
(-0.10855 0.156188 0)
(-0.127262 0.144803 0)
(-0.145868 0.127097 0)
(-0.164389 0.10156 0)
(-0.182489 0.0664973 0)
(-0.199287 0.0206048 0)
(-0.213109 -0.0363044 0)
(-0.221274 -0.102311 0)
(-0.219928 -0.172178 0)
(-0.204287 -0.235711 0)
(-0.169978 -0.276445 0)
(-0.116114 -0.272639 0)
(-0.052808 -0.205082 0)
(-0.00472466 -0.0780356 0)
(-0.00159315 0.0503836 0)
(-0.0144426 0.116163 0)
(-0.0321401 0.154711 0)
(-0.0509141 0.173998 0)
(-0.068604 0.180911 0)
(-0.0847985 0.17997 0)
(-0.0997143 0.173447 0)
(-0.113869 0.161792 0)
(-0.127856 0.144134 0)
(-0.142201 0.118757 0)
(-0.157212 0.083568 0)
(-0.172792 0.0366248 0)
(-0.188102 -0.0232198 0)
(-0.201216 -0.0953344 0)
(-0.208554 -0.176017 0)
(-0.204474 -0.256095 0)
(-0.181882 -0.317878 0)
(-0.134771 -0.333067 0)
(-0.0684694 -0.267434 0)
(-0.00775585 -0.109668 0)
(-0.00229207 0.0587797 0)
(-0.0172462 0.132164 0)
(-0.0352148 0.172761 0)
(-0.0522027 0.19109 0)
(-0.0660846 0.196015 0)
(-0.0769194 0.193121 0)
(-0.0853586 0.185184 0)
(-0.0923256 0.17286 0)
(-0.0988422 0.155328 0)
(-0.105959 0.130807 0)
(-0.114672 0.0969826 0)
(-0.125776 0.0514539 0)
(-0.139499 -0.00777671 0)
(-0.155229 -0.0817043 0)
(-0.170539 -0.168691 0)
(-0.180071 -0.262239 0)
(-0.175018 -0.346058 0)
(-0.14379 -0.387866 0)
(-0.084021 -0.336282 0)
(-0.0123244 -0.151219 0)
(-0.00379284 0.0696259 0)
(-0.0227077 0.149721 0)
(-0.0408759 0.189897 0)
(-0.0547757 0.204688 0)
(-0.0627081 0.205556 0)
(-0.0656695 0.199197 0)
(-0.0649889 0.188823 0)
(-0.062095 0.175248 0)
(-0.0584374 0.157736 0)
(-0.0555324 0.13456 0)
(-0.0549579 0.103371 0)
(-0.0582945 0.0615654 0)
(-0.0670322 0.00656501 0)
(-0.0819655 -0.0638909 0)
(-0.102471 -0.150586 0)
(-0.125087 -0.250968 0)
(-0.141345 -0.353292 0)
(-0.135099 -0.426359 0)
(-0.0949402 -0.403649 0)
(-0.0185608 -0.203111 0)
(-0.00682648 0.0852943 0)
(-0.0326946 0.169699 0)
(-0.0500779 0.205122 0)
(-0.0581965 0.212585 0)
(-0.0566969 0.206796 0)
(-0.0483189 0.195353 0)
(-0.0354006 0.181605 0)
(-0.0199622 0.166321 0)
(-0.00381311 0.148787 0)
(0.0112095 0.127361 0)
(0.0231508 0.0998352 0)
(0.029893 0.0636591 0)
(0.0291041 0.0160846 0)
(0.0185957 -0.0457137 0)
(-0.00325 -0.124562 0)
(-0.0358393 -0.222108 0)
(-0.0739813 -0.333897 0)
(-0.0996264 -0.436659 0)
(-0.093878 -0.45641 0)
(-0.0255946 -0.263025 0)
(-0.012771 0.110825 0)
(-0.0488032 0.193176 0)
(-0.0603869 0.216202 0)
(-0.0561052 0.210963 0)
(-0.038758 0.195653 0)
(-0.0138708 0.177918 0)
(0.0150397 0.160501 0)
(0.0455043 0.143703 0)
(0.0756148 0.126607 0)
(0.103547 0.107616 0)
(0.12732 0.0847582 0)
(0.144641 0.0557719 0)
(0.152736 0.0181871 0)
(0.148529 -0.030855 0)
(0.128636 -0.094876 0)
(0.0905679 -0.178676 0)
(0.0334913 -0.286048 0)
(-0.0266506 -0.407356 0)
(-0.070112 -0.477201 0)
(-0.0302251 -0.324406 0)
(-0.0214638 0.149932 0)
(-0.0665396 0.213073 0)
(-0.0540365 0.211811 0)
(-0.0222502 0.188844 0)
(0.0213811 0.163455 0)
(0.068853 0.14085 0)
(0.116525 0.121765 0)
(0.16242 0.10543 0)
(0.205272 0.090526 0)
(0.243866 0.0755086 0)
(0.276687 0.0587249 0)
(0.301743 0.0384147 0)
(0.316265 0.0127212 0)
(0.316991 -0.0207023 0)
(0.299543 -0.0647797 0)
(0.259347 -0.125209 0)
(0.190099 -0.21174 0)
(0.0991753 -0.332307 0)
(-0.00789796 -0.448494 0)
(-0.0240033 -0.376036 0)
(-0.0270729 0.230691 0)
(-0.0355899 0.22432 0)
(0.046623 0.176625 0)
(0.124797 0.136716 0)
(0.199847 0.106211 0)
(0.267611 0.0840087 0)
(0.327796 0.0678337 0)
(0.380935 0.055574 0)
(0.427527 0.0455674 0)
(0.46763 0.0364579 0)
(0.500656 0.0270575 0)
(0.525371 0.0162707 0)
(0.539349 0.00296927 0)
(0.539982 -0.0137904 0)
(0.522822 -0.0361661 0)
(0.483012 -0.0683682 0)
(0.409945 -0.119944 0)
(0.301048 -0.213073 0)
(0.123493 -0.348062 0)
(0.023069 -0.378373 0)
(0.214817 0.136153 0)
(0.286431 0.0989378 0)
(0.446295 0.0571866 0)
(0.548987 0.0365451 0)
(0.621243 0.0238837 0)
(0.675769 0.0159125 0)
(0.718159 0.0109355 0)
(0.751841 0.00772576 0)
(0.778961 0.00548692 0)
(0.800604 0.00371033 0)
(0.817012 0.00203545 0)
(0.827748 0.00021167 0)
(0.831824 -0.0021027 0)
(0.827643 -0.00463246 0)
(0.811704 -0.00817403 0)
(0.781378 -0.013359 0)
(0.72417 -0.023234 0)
(0.635422 -0.0407525 0)
(0.431245 -0.0914644 0)
(0.270829 -0.1536 0)
)
;

boundaryField
{
    movingWall
    {
        type            fixedValue;
        value           uniform (1 0 0);
    }
    fixedWalls
    {
        type            fixedValue;
        value           uniform (0 0 0);
    }
    frontAndBack
    {
        type            empty;
    }
}


// ************************************************************************* //
