/*--------------------------------*- C++ -*----------------------------------*\
  =========                 |
  \\      /  F ield         | OpenFOAM: The Open Source CFD Toolbox
   \\    /   O peration     | Website:  https://openfoam.org
    \\  /    A nd           | Version:  13
     \\/     M anipulation  |
\*---------------------------------------------------------------------------*/
FoamFile
{
    format      ascii;
    class       volVectorField;
    location    "4";
    object      U_0;
}
// * * * * * * * * * * * * * * * * * * * * * * * * * * * * * * * * * * * * * //

dimensions      [0 1 -1 0 0 0 0];

internalField   nonuniform List<vector> 
400
(
(0.00013734 -0.000136092 0)
(-0.000201053 2.39315e-05 0)
(-0.00139104 0.000191087 0)
(-0.00317791 0.000292077 0)
(-0.00531208 0.000339444 0)
(-0.0075651 0.000350728 0)
(-0.00975236 0.000335748 0)
(-0.0117128 0.000296955 0)
(-0.0132903 0.00023213 0)
(-0.0143273 0.000138278 0)
(-0.0146757 1.59791e-05 0)
(-0.0142219 -0.000128162 0)
(-0.0129255 -0.000276053 0)
(-0.0108584 -0.000401491 0)
(-0.00823104 -0.000473479 0)
(-0.00538895 -0.000464785 0)
(-0.00276719 -0.000362017 0)
(-0.000796958 -0.000175359 0)
(0.000213454 4.84187e-05 0)
(0.00022069 0.000207985 0)
(-2.68992e-05 0.000198606 0)
(-0.00167801 0.0016042 0)
(-0.00510865 0.00293975 0)
(-0.00978683 0.00382178 0)
(-0.015166 0.00424941 0)
(-0.0207575 0.0042902 0)
(-0.0261294 0.00400018 0)
(-0.0308888 0.00340447 0)
(-0.0346595 0.00250837 0)
(-0.0370785 0.00132255 0)
(-0.0378246 -0.000107643 0)
(-0.0366681 -0.00167875 0)
(-0.0335474 -0.00321537 0)
(-0.0286447 -0.0044831 0)
(-0.0224289 -0.00522722 0)
(-0.0156454 -0.00523937 0)
(-0.009222 -0.00443779 0)
(-0.00408238 -0.00294069 0)
(-0.000896911 -0.00112872 0)
(0.000125971 0.000241309 0)
(-0.000226781 0.00147306 0)
(-0.00334836 0.00512376 0)
(-0.00892253 0.00820045 0)
(-0.0161266 0.0102064 0)
(-0.0241894 0.0111486 0)
(-0.0324598 0.0111495 0)
(-0.0403482 0.0103163 0)
(-0.0473081 0.00870469 0)
(-0.0528136 0.00634083 0)
(-0.0563617 0.00327307 0)
(-0.0575087 -0.00036771 0)
(-0.0559368 -0.00431814 0)
(-0.0515489 -0.00815897 0)
(-0.0445674 -0.0113423 0)
(-0.0355992 -0.0132786 0)
(-0.0256366 -0.0134846 0)
(-0.0159485 -0.0117658 0)
(-0.00784192 -0.00838064 0)
(-0.00235271 -0.00413579 0)
(-2.2795e-06 -0.000478989 0)
(-0.000394672 0.00361135 0)
(-0.00489504 0.0104448 0)
(-0.0124805 0.0157297 0)
(-0.0219922 0.019069 0)
(-0.0324441 0.0205661 0)
(-0.0430677 0.0204317 0)
(-0.0531748 0.0188345 0)
(-0.0621238 0.0158628 0)
(-0.0692886 0.0115645 0)
(-0.0740567 0.00602987 0)
(-0.0758676 -0.000512325 0)
(-0.0742851 -0.00761106 0)
(-0.0691101 -0.0145559 0)
(-0.0605126 -0.0204092 0)
(-0.0491354 -0.0241432 0)
(-0.0361414 -0.0248831 0)
(-0.0231258 -0.0222236 0)
(-0.0118456 -0.0165231 0)
(-0.00384177 -0.009047 0)
(-9.51874e-05 -0.00195765 0)
(-0.000535349 0.00653443 0)
(-0.00628943 0.0174208 0)
(-0.0157406 0.0253329 0)
(-0.0273959 0.0301669 0)
(-0.0400676 0.0322367 0)
(-0.0528994 0.0318955 0)
(-0.0651469 0.029391 0)
(-0.0761174 0.0248413 0)
(-0.0851179 0.0183008 0)
(-0.0914383 0.00988039 0)
(-0.0943798 -0.00011452 0)
(-0.0933324 -0.0110535 0)
(-0.0879038 -0.0219202 0)
(-0.0780914 -0.0313239 0)
(-0.0644617 -0.0376751 0)
(-0.0482826 -0.039531 0)
(-0.0315053 -0.0360882 0)
(-0.0164842 -0.0276826 0)
(-0.00549246 -0.0160456 0)
(-0.000166241 -0.00419204 0)
(-0.000658021 0.0101589 0)
(-0.00755068 0.0259181 0)
(-0.0187259 0.0368711 0)
(-0.0323833 0.0433732 0)
(-0.0471574 0.0460662 0)
(-0.0621334 0.0455112 0)
(-0.0765486 0.0420582 0)
(-0.0896975 0.0358472 0)
(-0.100849 0.026908 0)
(-0.109202 0.0153236 0)
(-0.113896 0.00142081 0)
(-0.114084 -0.0140441 0)
(-0.109077 -0.0297586 0)
(-0.0985574 -0.0438279 0)
(-0.0828671 -0.0539505 0)
(-0.0632694 -0.0578586 0)
(-0.0420735 -0.0540386 0)
(-0.0224032 -0.042561 0)
(-0.00758923 -0.0256037 0)
(-0.000246992 -0.00730963 0)
(-0.00076745 0.0144181 0)
(-0.00869373 0.0358107 0)
(-0.021448 0.0502053 0)
(-0.036955 0.0585653 0)
(-0.0537019 0.0619774 0)
(-0.0707477 0.061281 0)
(-0.0873499 0.0569554 0)
(-0.10283 0.0491498 0)
(-0.116452 0.0378245 0)
(-0.127344 0.0229618 0)
(-0.134478 0.00481839 0)
(-0.136724 -0.0158156 0)
(-0.132997 -0.0373904 0)
(-0.12252 -0.057489 0)
(-0.105212 -0.0729452 0)
(-0.0821322 -0.0803392 0)
(-0.0558437 -0.0769757 0)
(-0.0303605 -0.0622145 0)
(-0.0104933 -0.0385435 0)
(-0.000376178 -0.0116111 0)
(-0.000864928 0.0192509 0)
(-0.00971728 0.0469688 0)
(-0.0238819 0.0651756 0)
(-0.0410368 0.0755833 0)
(-0.0595495 0.0798415 0)
(-0.0784852 0.0791442 0)
(-0.0971613 0.0741298 0)
(-0.114972 0.0649453 0)
(-0.131223 0.0514287 0)
(-0.145016 0.0333727 0)
(-0.155184 0.010844 0)
(-0.160318 -0.0154661 0)
(-0.158887 -0.043893 0)
(-0.149527 -0.0715491 0)
(-0.131503 -0.0943036 0)
(-0.105358 -0.107238 0)
(-0.073616 -0.10584 0)
(-0.0411239 -0.0879972 0)
(-0.0146245 -0.0560714 0)
(-0.000603021 -0.0176049 0)
(-0.000950985 0.0245921 0)
(-0.0106126 0.0592405 0)
(-0.0259776 0.0815699 0)
(-0.0444911 0.0941767 0)
(-0.0644192 0.0993973 0)
(-0.0848617 0.0988638 0)
(-0.105235 0.0934129 0)
(-0.125054 0.0831841 0)
(-0.143732 0.0678467 0)
(-0.160419 0.0469149 0)
(-0.173899 0.0201337 0)
(-0.182556 -0.0120745 0)
(-0.184457 -0.0481195 0)
(-0.177592 -0.0848051 0)
(-0.160366 -0.117071 0)
(-0.132399 -0.138241 0)
(-0.0956298 -0.141258 0)
(-0.0553297 -0.121362 0)
(-0.0204607 -0.0797551 0)
(-0.000999215 -0.0260417 0)
(-0.00103066 0.0303742 0)
(-0.0113889 0.0724461 0)
(-0.0277007 0.0991009 0)
(-0.047169 0.113955 0)
(-0.0679623 0.12017 0)
(-0.0892374 0.119912 0)
(-0.110544 0.114268 0)
(-0.131572 0.103382 0)
(-0.151916 0.086729 0)
(-0.170886 0.0634787 0)
(-0.187363 0.0329377 0)
(-0.1997 -0.00492011 0)
(-0.205722 -0.0488361 0)
(-0.202862 -0.0955968 0)
(-0.188556 -0.13947 0)
(-0.161093 -0.172015 0)
(-0.121058 -0.182997 0)
(-0.0732179 -0.163451 0)
(-0.0285168 -0.111406 0)
(-0.00167871 -0.0379579 0)
(-0.00112266 0.0365488 0)
(-0.0121174 0.0863958 0)
(-0.0291017 0.117401 0)
(-0.0490008 0.134355 0)
(-0.069874 0.14141 0)
(-0.0909575 0.141379 0)
(-0.111969 0.135667 0)
(-0.132821 0.124459 0)
(-0.153374 0.107047 0)
(-0.173229 0.0822379 0)
(-0.191556 0.048831 0)
(-0.206944 0.00619821 0)
(-0.217269 -0.0450095 0)
(-0.219673 -0.101985 0)
(-0.210745 -0.158857 0)
(-0.187185 -0.205836 0)
(-0.147392 -0.229291 0)
(-0.0941724 -0.214413 0)
(-0.0392476 -0.152778 0)
(-0.00282542 -0.0547145 0)
(-0.00127521 0.0431408 0)
(-0.0129971 0.100944 0)
(-0.030413 0.136047 0)
(-0.0501137 0.154631 0)
(-0.0700372 0.162059 0)
(-0.0895425 0.161927 0)
(-0.108558 0.156034 0)
(-0.127271 0.144665 0)
(-0.14588 0.126987 0)
(-0.164403 0.101491 0)
(-0.182506 0.0664765 0)
(-0.199305 0.0206359 0)
(-0.213124 -0.036223 0)
(-0.221281 -0.102184 0)
(-0.219924 -0.172013 0)
(-0.204269 -0.235521 0)
(-0.16995 -0.276244 0)
(-0.116084 -0.272454 0)
(-0.0527891 -0.204948 0)
(-0.00472189 -0.0779864 0)
(-0.00159428 0.0503545 0)
(-0.0144514 0.11609 0)
(-0.0321585 0.154605 0)
(-0.0509425 0.173868 0)
(-0.0686421 0.180764 0)
(-0.0848464 0.179817 0)
(-0.0997722 0.173299 0)
(-0.113937 0.16166 0)
(-0.127935 0.144031 0)
(-0.142288 0.118693 0)
(-0.157306 0.0835503 0)
(-0.172889 0.0366548 0)
(-0.188195 -0.0231457 0)
(-0.201298 -0.0952204 0)
(-0.208619 -0.175871 0)
(-0.204515 -0.255924 0)
(-0.181897 -0.317693 0)
(-0.134766 -0.332886 0)
(-0.0684574 -0.267291 0)
(-0.00775271 -0.109609 0)
(-0.00229372 0.0587568 0)
(-0.0172601 0.132102 0)
(-0.0352451 0.172668 0)
(-0.0522509 0.190974 0)
(-0.0661512 0.195884 0)
(-0.0770046 0.192983 0)
(-0.0854623 0.185051 0)
(-0.092447 0.172743 0)
(-0.0989794 0.155238 0)
(-0.106109 0.130753 0)
(-0.114831 0.0969707 0)
(-0.125938 0.0514845 0)
(-0.139656 -0.00770719 0)
(-0.155373 -0.0816058 0)
(-0.170664 -0.168569 0)
(-0.180166 -0.262099 0)
(-0.175078 -0.345904 0)
(-0.143815 -0.387707 0)
(-0.084021 -0.336144 0)
(-0.0123216 -0.151155 0)
(-0.00379474 0.0696116 0)
(-0.0227247 0.149677 0)
(-0.040914 0.189825 0)
(-0.0548378 0.204594 0)
(-0.0627951 0.205446 0)
(-0.0657816 0.199082 0)
(-0.0651254 0.188711 0)
(-0.0622539 0.17515 0)
(-0.0586148 0.157662 0)
(-0.0557234 0.134518 0)
(-0.0551565 0.103365 0)
(-0.058493 0.0615946 0)
(-0.0672262 0.00662569 0)
(-0.0821479 -0.0638095 0)
(-0.102632 -0.15049 0)
(-0.125219 -0.250864 0)
(-0.141439 -0.353178 0)
(-0.135151 -0.426238 0)
(-0.0949551 -0.403534 0)
(-0.0185595 -0.20305 0)
(-0.00682814 0.0852895 0)
(-0.0327112 0.169674 0)
(-0.0501168 0.205074 0)
(-0.0582615 0.212518 0)
(-0.0567898 0.206714 0)
(-0.0484395 0.195265 0)
(-0.0355482 0.181518 0)
(-0.0201342 0.166245 0)
(-0.0040037 0.148729 0)
(0.0110062 0.127329 0)
(0.0229415 0.0998313 0)
(0.0296859 0.0636833 0)
(0.0289051 0.0161315 0)
(0.0184108 -0.0456498 0)
(-0.00341526 -0.124491 0)
(-0.0359788 -0.222035 0)
(-0.0740904 -0.333821 0)
(-0.0996961 -0.436583 0)
(-0.0939048 -0.456329 0)
(-0.0255958 -0.262975 0)
(-0.0127717 0.110828 0)
(-0.0488147 0.193169 0)
(-0.0604168 0.216178 0)
(-0.0561584 0.210923 0)
(-0.0388372 0.1956 0)
(-0.0139757 0.177858 0)
(0.0149086 0.16044 0)
(0.0453486 0.143648 0)
(0.0754409 0.126565 0)
(0.103361 0.107592 0)
(0.127129 0.0847549 0)
(0.144453 0.0557897 0)
(0.152559 0.0182224 0)
(0.148367 -0.0308079 0)
(0.128493 -0.0948257 0)
(0.0904482 -0.178629 0)
(0.0333908 -0.286006 0)
(-0.0267208 -0.407314 0)
(-0.0701419 -0.477155 0)
(-0.0302282 -0.324372 0)
(-0.021463 0.149939 0)
(-0.0665422 0.213077 0)
(-0.054049 0.211804 0)
(-0.0222783 0.188826 0)
(0.0213335 0.163427 0)
(0.0687839 0.140815 0)
(0.116433 0.121727 0)
(0.162306 0.105396 0)
(0.20514 0.0904989 0)
(0.243722 0.0754924 0)
(0.276537 0.0587223 0)
(0.301596 0.0384257 0)
(0.316128 0.0127435 0)
(0.316868 -0.0206725 0)
(0.299438 -0.0647484 0)
(0.25926 -0.125182 0)
(0.190029 -0.211723 0)
(0.0991243 -0.332289 0)
(-0.00792441 -0.448476 0)
(-0.0240073 -0.37602 0)
(-0.0270713 0.230696 0)
(-0.0355852 0.224326 0)
(0.0466268 0.176626 0)
(0.124794 0.136711 0)
(0.199834 0.106201 0)
(0.267582 0.0839946 0)
(0.32775 0.0678175 0)
(0.380871 0.0555586 0)
(0.427447 0.0455553 0)
(0.46754 0.036451 0)
(0.50056 0.0270571 0)
(0.525276 0.016277 0)
(0.539262 0.00298159 0)
(0.539907 -0.0137755 0)
(0.522762 -0.0361513 0)
(0.482967 -0.0683564 0)
(0.409913 -0.119937 0)
(0.301024 -0.21307 0)
(0.123478 -0.34806 0)
(0.0230655 -0.37837 0)
(0.214818 0.136154 0)
(0.286435 0.0989396 0)
(0.446302 0.0571879 0)
(0.548994 0.0365453 0)
(0.621245 0.023883 0)
(0.675765 0.0159111 0)
(0.718146 0.0109338 0)
(0.751819 0.00772417 0)
(0.778932 0.00548596 0)
(0.800569 0.00371029 0)
(0.816975 0.00203653 0)
(0.827714 0.0002138 0)
(0.831795 -0.00209911 0)
(0.827622 -0.00462934 0)
(0.811692 -0.00817174 0)
(0.781372 -0.0133577 0)
(0.724169 -0.0232339 0)
(0.635422 -0.0407529 0)
(0.431244 -0.0914652 0)
(0.270828 -0.153601 0)
)
;

boundaryField
{
    movingWall
    {
        type            calculated;
        value           uniform (1 0 0);
    }
    fixedWalls
    {
        type            calculated;
        value           uniform (0 0 0);
    }
    frontAndBack
    {
        type            empty;
    }
}


// ************************************************************************* //
