/*--------------------------------*- C++ -*----------------------------------*\
  =========                 |
  \\      /  F ield         | OpenFOAM: The Open Source CFD Toolbox
   \\    /   O peration     | Website:  https://openfoam.org
    \\  /    A nd           | Version:  13
     \\/     M anipulation  |
\*---------------------------------------------------------------------------*/
FoamFile
{
    format      ascii;
    class       volScalarField;
    location    "12";
    object      p;
}
// * * * * * * * * * * * * * * * * * * * * * * * * * * * * * * * * * * * * * //

dimensions      [0 2 -2 0 0 0 0];

internalField   nonuniform List<scalar> 
400
(
4.80912e-07
-0.000566322
-0.00120125
-0.00169494
-0.00192646
-0.00184411
-0.0014237
-0.000654781
0.000453367
0.00185674
0.00346224
0.00511877
0.00663215
0.00779239
0.00842519
0.00844897
0.0079191
0.00704355
0.00612976
0.00557925
0.000565315
-1.92281e-05
-0.000561169
-0.000940477
-0.00110716
-0.00102899
-0.000685625
-6.30111e-05
0.000838794
0.00199094
0.00332078
0.00470962
0.00598919
0.00697929
0.00752773
0.00756231
0.00712869
0.00639727
0.005628
0.00506045
0.00123241
0.000487336
-8.46168e-05
-0.000431378
-0.000587525
-0.000548415
-0.000300157
0.000178029
0.000901594
0.0018628
0.00301234
0.00424924
0.00542155
0.00635192
0.00688087
0.00692082
0.0064969
0.0057528
0.0049002
0.0041324
0.00171913
0.000752148
7.09978e-05
-0.000315935
-0.000521085
-0.000565261
-0.000438663
-0.000109107
0.000460584
0.00128915
0.0023519
0.00356359
0.00477163
0.00577946
0.00639118
0.00647498
0.00601792
0.00514361
0.00404926
0.00295118
0.00176972
0.000581877
-0.000231304
-0.000698275
-0.000999168
-0.00117349
-0.00120955
-0.00105755
-0.000651744
6.03531e-05
0.00108454
0.00235696
0.00372115
0.00494957
0.00578601
0.00602197
0.00557596
0.00453944
0.00311298
0.00158328
0.00117157
-0.000212973
-0.00116167
-0.00173886
-0.00218181
-0.00254183
-0.0027992
-0.00288027
-0.00268302
-0.00211124
-0.00111701
0.000278959
0.00191685
0.00353704
0.00480138
0.00538328
0.00508274
0.00392341
0.00210663
3.397e-05
-0.000253062
-0.00179804
-0.00287753
-0.00359275
-0.00422832
-0.00484257
-0.00540356
-0.00580881
-0.00591217
-0.00555874
-0.00462701
-0.00310622
-0.00109894
0.00110582
0.00307214
0.00430549
0.00441084
0.00327034
0.00104687
-0.0016997
-0.00264177
-0.00430348
-0.00550498
-0.00638549
-0.00726878
-0.00821863
-0.0091904
-0.010051
-0.0106033
-0.0106202
-0.00989113
-0.00829601
-0.00587426
-0.00289771
0.00010612
0.00242727
0.00337141
0.00255063
-1.49904e-05
-0.00357728
-0.00608041
-0.00780998
-0.00911943
-0.0101863
-0.0113684
-0.0127378
-0.0142415
-0.0157185
-0.0169184
-0.0175286
-0.0172208
-0.0157267
-0.0129494
-0.00907753
-0.00468691
-0.00072395
0.00170018
0.00173353
-0.000956377
-0.00545329
-0.010593
-0.0123374
-0.0137283
-0.0149807
-0.0164878
-0.0183393
-0.0204831
-0.0227387
-0.0248062
-0.0262826
-0.0266993
-0.02559
-0.0226607
-0.0179083
-0.0118598
-0.00565592
-0.000913597
0.000806739
-0.001534
-0.00698795
-0.0161414
-0.0178425
-0.0192617
-0.0206494
-0.0224495
-0.0247858
-0.0276221
-0.0307704
-0.0338905
-0.0364924
-0.0379544
-0.0375601
-0.0348565
-0.0294367
-0.0216499
-0.0126988
-0.00469858
-0.000150304
-0.00130708
-0.00750781
-0.0226447
-0.024233
-0.0255776
-0.0269622
-0.0289223
-0.031643
-0.0351218
-0.0391757
-0.043435
-0.0473316
-0.0501112
-0.0509144
-0.0487156
-0.042978
-0.0336147
-0.0216512
-0.00952804
-0.000788839
0.000490767
-0.00579402
-0.0300315
-0.0314017
-0.032482
-0.0335874
-0.0354318
-0.0382992
-0.0422365
-0.0470707
-0.0524063
-0.0576058
-0.0617842
-0.0638536
-0.0625907
-0.0569372
-0.0463402
-0.0313961
-0.0145355
-0.000191176
0.00516243
0.000205331
-0.0383466
-0.0392881
-0.0397635
-0.0401192
-0.0414016
-0.044036
-0.0481229
-0.0534874
-0.0596939
-0.0660304
-0.0714927
-0.0748043
-0.0744891
-0.0690849
-0.057516
-0.0397515
-0.0178067
0.00346668
0.0148604
0.0136965
-0.0479535
-0.0479528
-0.0472112
-0.0460913
-0.0462013
-0.048125
-0.0519885
-0.0575725
-0.0643612
-0.0715388
-0.0779696
-0.0821997
-0.0825182
-0.0771159
-0.0644406
-0.043774
-0.0164076
0.013138
0.0330351
0.0393641
-0.0600235
-0.0577677
-0.0546981
-0.0510543
-0.0492576
-0.0499765
-0.0532715
-0.0587962
-0.0658844
-0.0735662
-0.080537
-0.0851479
-0.0854588
-0.0793389
-0.0648248
-0.0405424
-0.00693741
0.0328502
0.0648239
0.0836943
-0.0772996
-0.0693164
-0.0619602
-0.0544415
-0.0500254
-0.0491783
-0.0517076
-0.057011
-0.0641945
-0.0720746
-0.0791403
-0.0835186
-0.0830213
-0.075161
-0.0575723
-0.0282197
0.013309
0.0666163
0.11571
0.154761
-0.108789
-0.0849307
-0.0697008
-0.0563433
-0.0484866
-0.04579
-0.0474775
-0.0525096
-0.0596654
-0.067503
-0.0742864
-0.0779125
-0.0759386
-0.0654542
-0.0436316
-0.00749628
0.0446529
0.114832
0.187983
0.263185
-0.1686
-0.100675
-0.0730644
-0.0522846
-0.0412997
-0.0376504
-0.0393343
-0.044696
-0.0521966
-0.0602014
-0.0668318
-0.0698395
-0.0665402
-0.0537094
-0.0278847
0.0153518
0.0799714
0.172642
0.285736
0.445873
-0.402664
-0.138969
-0.0734422
-0.0447428
-0.0305804
-0.0265896
-0.0290009
-0.0352272
-0.0434562
-0.0519791
-0.0588931
-0.0619402
-0.0584605
-0.0451262
-0.0174331
0.0310355
0.108409
0.23655
0.427376
0.793573
)
;

boundaryField
{
    movingWall
    {
        type            zeroGradient;
    }
    fixedWalls
    {
        type            zeroGradient;
    }
    frontAndBack
    {
        type            empty;
    }
}


// ************************************************************************* //
