/*--------------------------------*- C++ -*----------------------------------*\
  =========                 |
  \\      /  F ield         | OpenFOAM: The Open Source CFD Toolbox
   \\    /   O peration     | Website:  https://openfoam.org
    \\  /    A nd           | Version:  13
     \\/     M anipulation  |
\*---------------------------------------------------------------------------*/
FoamFile
{
    format      ascii;
    class       surfaceScalarField;
    location    "12";
    object      phi;
}
// * * * * * * * * * * * * * * * * * * * * * * * * * * * * * * * * * * * * * //

dimensions      [0 3 -1 0 0 0 0];

internalField   nonuniform List<scalar> 
760
(
4.20707e-06
-4.21197e-06
-3.89639e-05
4.31709e-05
-0.000130519
9.15553e-05
-0.00025501
0.000124491
-0.000396796
0.000141786
-0.000542544
0.000145748
-0.00068043
0.000137886
-0.00079881
0.00011838
-0.000885653
8.68425e-05
-0.000929222
4.35693e-05
-0.000919887
-9.33541e-06
-0.000853026
-6.68606e-05
-0.000731611
-0.000121416
-0.000568211
-0.0001634
-0.000384804
-0.000183407
-0.000209781
-0.000175022
-7.20589e-05
-0.000137723
6.94863e-06
-7.90075e-05
2.32726e-05
-1.63241e-05
2.32726e-05
-4.68017e-05
4.25897e-05
-0.000208494
0.000204863
-0.000470122
0.000353183
-0.000799564
0.000453933
-0.00116324
0.00050546
-0.00152999
0.000512501
-0.00187063
0.000478529
-0.00215659
0.000404338
-0.00235983
0.000290077
-0.00245484
0.000138587
-0.00242277
-4.14087e-05
-0.00225597
-0.00023366
-0.00196365
-0.00041374
-0.00157435
-0.000552695
-0.00113537
-0.000622388
-0.000706752
-0.000603641
-0.000349708
-0.000494767
-0.000110859
-0.000317856
-5.96827e-06
-0.000121215
1.73043e-05
-0.000110488
0.000153077
-0.000401732
0.000496107
-0.00082731
0.000778761
-0.00133836
0.000964985
-0.00188848
0.00105558
-0.00243465
0.00105867
-0.002936
0.000979882
-0.00335266
0.000820996
-0.00364628
0.00058369
-0.00378288
0.00027519
-0.00373778
-8.6507e-05
-0.00350141
-0.00047003
-0.0030853
-0.00082985
-0.0025259
-0.0011121
-0.00188452
-0.00126377
-0.00124115
-0.001247
-0.000680752
-0.00105517
-0.000273182
-0.000725426
-5.21543e-05
-0.000342243
-3.48499e-05
-0.000171493
0.00032457
-0.000588013
0.000912626
-0.00116832
0.00135907
-0.00184484
0.0016415
-0.00255994
0.00177068
-0.00326238
0.00176111
-0.00390404
0.00162154
-0.0044381
0.00135505
-0.00481951
0.000965098
-0.00500794
0.000463625
-0.00497275
-0.000121696
-0.00469911
-0.000743669
-0.00419507
-0.00133389
-0.00349728
-0.00180989
-0.00267379
-0.00208726
-0.00182027
-0.00210052
-0.00104653
-0.00182891
-0.000452694
-0.00131926
-0.000101663
-0.000693274
-0.000136513
-0.000226016
0.000550586
-0.000756255
0.00144286
-0.00147703
0.00207985
-0.00230268
0.00246715
-0.00316594
0.00263394
-0.00401015
0.00260533
-0.00478336
0.00239476
-0.00543511
0.00200679
-0.00591599
0.00144598
-0.00617983
0.000727465
-0.00618814
-0.000113383
-0.00591602
-0.00101579
-0.00536093
-0.00188897
-0.0045515
-0.00261932
-0.00355541
-0.00308335
-0.00248132
-0.0031746
-0.0014682
-0.00284204
-0.0006578
-0.00212966
-0.000155929
-0.00119514
-0.000292442
-0.000272112
0.000822699
-0.000899672
0.00207042
-0.00174164
0.00292182
-0.00269692
0.00342243
-0.0036909
0.00362792
-0.00466411
0.00357853
-0.00556373
0.00329438
-0.00633847
0.00278153
-0.00693651
0.00204401
-0.00730606
0.00109702
-0.00739908
-2.03597e-05
-0.00717542
-0.00123946
-0.00661486
-0.00244953
-0.00572847
-0.00350571
-0.00457421
-0.00423761
-0.00326806
-0.00448076
-0.00198092
-0.00412918
-0.000909655
-0.00320092
-0.000222203
-0.0018826
-0.000514645
-0.000307932
0.00113063
-0.00101208
0.00277458
-0.00195057
0.0038603
-0.00301063
0.00448249
-0.00411293
0.00473023
-0.00519783
0.00466343
-0.00621448
0.00431103
-0.00711358
0.00368063
-0.00784325
0.00277369
-0.0083476
0.00160136
-0.00856718
0.000199219
-0.00844592
-0.00136071
-0.00793821
-0.00295724
-0.00702753
-0.00441639
-0.00574899
-0.00551615
-0.00421367
-0.00601608
-0.00262058
-0.00572228
-0.00123377
-0.00458772
-0.000309946
-0.00280642
-0.00082459
-0.000331603
0.00146223
-0.00108745
0.00353042
-0.00209195
0.0048648
-0.00322466
0.0056152
-0.00440424
0.0059098
-0.00557327
0.00583247
-0.00668564
0.0054234
-0.0076972
0.00469218
-0.00855935
0.00363584
-0.00921509
0.00225711
-0.00959745
0.000581573
-0.00963242
-0.00132574
-0.0092472
-0.00334246
-0.00838831
-0.00527529
-0.00705168
-0.00685278
-0.00532259
-0.00774517
-0.0034119
-0.00763297
-0.00165486
-0.00634476
-0.000429723
-0.00403156
-0.00125431
-0.000341874
0.00180411
-0.00112125
0.0043098
-0.00215575
0.0058993
-0.00332073
0.00678019
-0.00453513
0.0071242
-0.00574599
0.00704332
-0.00691456
0.00659197
-0.00800532
0.00578294
-0.00897746
0.00460798
-0.00977844
0.00305809
-0.0103395
0.00114259
-0.0105744
-0.00109084
-0.0103849
-0.00353189
-0.00967569
-0.00598453
-0.00838724
-0.00814122
-0.0065504
-0.00958201
-0.00435464
-0.00982873
-0.00219174
-0.00850767
-0.00059293
-0.00563036
-0.00184724
-0.000339257
0.00214336
-0.00111323
0.00508377
-0.00213788
0.00692396
-0.00328692
0.00792922
-0.0044814
0.00831868
-0.00567475
0.00823667
-0.00683815
0.00775538
-0.00794832
0.00689311
-0.0089775
0.00563716
-0.00988492
0.00396551
-0.0106093
0.00186695
-0.0110623
-0.000637831
-0.0111303
-0.00346393
-0.0106782
-0.00643656
-0.00958104
-0.0092384
-0.0077844
-0.0113786
-0.0054063
-0.0122068
-0.00284967
-0.0110643
-0.000811398
-0.00766863
-0.00265864
-0.000327583
0.00247095
-0.00107089
0.00582707
-0.00204564
0.00789871
-0.00312492
0.00900849
-0.0042338
0.00942757
-0.0053343
0.00933717
-0.00641007
0.00883114
-0.00745352
0.00793656
-0.00845508
0.00663872
-0.00939346
0.00490389
-0.0102263
0.0026998
-0.0108742
1.0061e-05
-0.0112299
-0.00310824
-0.011129
-0.0065374
-0.0103838
-0.00998366
-0.00883247
-0.01293
-0.00646331
-0.014576
-0.00360811
-0.0139195
-0.00109586
-0.0101809
-0.0037545
-0.00031607
0.00278702
-0.00101378
0.00652478
-0.00190341
0.00878835
-0.0028572
0.00996228
-0.00380728
0.0103776
-0.00472767
0.0102576
-0.00561753
0.00972101
-0.00648794
0.00880697
-0.00735127
0.00750205
-0.00821164
0.00576425
-0.00905381
0.00354197
-0.00983558
0.000791826
-0.0104539
-0.00248995
-0.0107534
-0.00623787
-0.0105026
-0.0102344
-0.00943108
-0.0140015
-0.0073482
-0.0166589
-0.0044041
-0.0168636
-0.00145188
-0.0131331
-0.00520638
-0.000322336
0.00310935
-0.000978224
0.00718067
-0.00175761
0.00956774
-0.00253162
0.0107363
-0.0032458
0.0110918
-0.00389255
0.0109043
-0.00449096
0.0103194
-0.00507336
0.00938937
-0.00567605
0.00810475
-0.00633128
0.00641948
-0.00705796
0.00426865
-0.00784926
0.00158313
-0.0086491
-0.00169011
-0.00932925
-0.00555771
-0.00965531
-0.00990836
-0.00927823
-0.0143786
-0.00781256
-0.0181245
-0.00511497
-0.0195612
-0.00187149
-0.0163766
-0.00707788
-0.000377221
0.00348657
-0.00102247
0.00782591
-0.00167859
0.0102239
-0.00221919
0.0112769
-0.0026166
0.0114892
-0.00289278
0.0111805
-0.00309325
0.0105199
-0.00327397
0.00957009
-0.00349469
0.00832547
-0.00381417
0.00673896
-0.00428432
0.0047388
-0.00494028
0.00223909
-0.00578121
-0.000849179
-0.00673929
-0.00459963
-0.00762817
-0.00901949
-0.00808328
-0.0139235
-0.00755962
-0.0186482
-0.00554735
-0.0215735
-0.0023192
-0.0196047
-0.00939708
-0.000533247
0.00401982
-0.0012301
0.00852277
-0.00175254
0.0107463
-0.00199414
0.0115185
-0.00198003
0.0114751
-0.00177966
0.0109801
-0.00147373
0.010214
-0.0011439
0.00924027
-0.000871026
0.00805259
-0.000735316
0.00660325
-0.000815336
0.00481882
-0.00118388
0.00260764
-0.00189662
-0.000136437
-0.00296464
-0.00353162
-0.00429849
-0.00768563
-0.00560424
-0.0126178
-0.00627314
-0.0179793
-0.00543472
-0.0224119
-0.00271118
-0.0223283
-0.0121083
-0.000872636
0.00489246
-0.00169616
0.0093463
-0.00203532
0.0110855
-0.00185903
0.0113422
-0.0012929
0.010909
-0.000479348
0.0101666
0.000456223
0.00927838
0.00140634
0.00829015
0.00227365
0.00718529
0.00296397
0.00591292
0.00338129
0.0044015
0.00342561
0.00256331
0.00299498
0.000294198
0.00200153
-0.00253817
0.000411387
-0.00609549
-0.00163665
-0.0105697
-0.00362029
-0.0159957
-0.00442625
-0.0216059
-0.00288414
-0.0238704
-0.0149924
-0.00149785
0.0063903
-0.0024214
0.0102698
-0.0023503
0.0110144
-0.00148001
0.0104719
-0.000113873
0.00954286
0.00150847
0.00854423
0.00321704
0.00756981
0.00488747
0.00661971
0.00641791
0.00565484
0.00771257
0.00461827
0.00867086
0.00344321
0.0091802
0.00205397
0.00910989
0.000364509
0.00831733
-0.00174561
0.00665615
-0.00443431
0.00406639
-0.00797996
0.000824133
-0.0127534
-0.00201553
-0.0187663
-0.00250668
-0.0233792
-0.0174991
-0.0023422
0.00873251
-0.0028253
0.0107529
-0.0015975
0.00978656
0.00055384
0.00832056
0.00309335
0.00700335
0.00572311
0.00591447
0.00827753
0.00501539
0.010656
0.00424129
0.0127824
0.00352834
0.0145829
0.00281784
0.0159716
0.0020545
0.0168423
0.00118326
0.0170584
0.000148457
0.0164567
-0.00114391
0.0148224
-0.00280007
0.0119201
-0.00507766
0.00763818
-0.00847148
0.00260438
-0.0137325
-0.000911876
-0.019863
-0.018411
-0.00200176
0.0107343
0.000357802
0.00839338
0.00431602
0.00582834
0.00832572
0.00431086
0.0120775
0.00325159
0.0154737
0.00251821
0.0184928
0.00199635
0.0211359
0.00159821
0.0233981
0.00126612
0.0252558
0.00096014
0.0266605
0.000649747
0.0275332
0.000310625
0.0277633
-8.17125e-05
0.0271989
-0.000579487
0.0256173
-0.00121846
0.0226887
-0.00214902
0.0179461
-0.00372892
0.0109466
-0.00673296
0.0030231
-0.0119394
-0.0153879
0.0107343
0.0191277
0.024956
0.0292669
0.0325184
0.0350367
0.037033
0.0386312
0.0398973
0.0408575
0.0415072
0.0418178
0.0417361
0.0411566
0.0399382
0.0377892
0.0340602
0.0273273
0.0153879
)
;

boundaryField
{
    movingWall
    {
        type            calculated;
        value           uniform 0;
    }
    fixedWalls
    {
        type            calculated;
        value           uniform 0;
    }
    frontAndBack
    {
        type            empty;
    }
}


// ************************************************************************* //
