/*--------------------------------*- C++ -*----------------------------------*\
  =========                 |
  \\      /  F ield         | OpenFOAM: The Open Source CFD Toolbox
   \\    /   O peration     | Website:  https://openfoam.org
    \\  /    A nd           | Version:  13
     \\/     M anipulation  |
\*---------------------------------------------------------------------------*/
FoamFile
{
    format      ascii;
    class       surfaceScalarField;
    location    "12";
    object      phi_0;
}
// * * * * * * * * * * * * * * * * * * * * * * * * * * * * * * * * * * * * * //

dimensions      [0 3 -1 0 0 0 0];

internalField   nonuniform List<scalar> 
760
(
4.20876e-06
-4.20857e-06
-3.89623e-05
4.3171e-05
-0.000130515
9.15529e-05
-0.000255002
0.000124487
-0.000396783
0.000141781
-0.000542526
0.000145742
-0.000680407
0.000137881
-0.000798783
0.000118376
-0.000885623
8.68398e-05
-0.000929192
4.35685e-05
-0.000919858
-9.3339e-06
-0.000853001
-6.68569e-05
-0.000731591
-0.00012141
-0.000568197
-0.000163394
-0.000384797
-0.0001834
-0.00020978
-0.000175017
-7.20607e-05
-0.000137719
6.94601e-06
-7.90067e-05
2.32712e-05
-1.63252e-05
2.32711e-05
-4.67994e-05
4.25907e-05
-0.000208486
0.000204857
-0.000470104
0.000353171
-0.000799533
0.000453916
-0.00116319
0.000505441
-0.00152993
0.000512482
-0.00187056
0.000478511
-0.00215651
0.000404324
-0.00235974
0.000290069
-0.00245476
0.000138585
-0.00242269
-4.14026e-05
-0.0022559
-0.000233647
-0.00196359
-0.00041372
-0.00157431
-0.000552672
-0.00113534
-0.000622365
-0.000706739
-0.000603622
-0.000349705
-0.000494754
-0.000110861
-0.000317851
-5.96961e-06
-0.000121216
1.73015e-05
-0.000110483
0.000153073
-0.000401715
0.000496089
-0.000827275
0.000778731
-0.00133831
0.000964948
-0.0018884
0.00105554
-0.00243455
0.00105863
-0.00293589
0.000979847
-0.00335253
0.000820969
-0.00364614
0.000583675
-0.00378274
0.000275189
-0.00373765
-8.64933e-05
-0.0035013
-0.000470002
-0.00308521
-0.000829811
-0.00252582
-0.00111205
-0.00188447
-0.00126372
-0.00124113
-0.00124696
-0.000680739
-0.00105514
-0.000273179
-0.000725412
-5.21545e-05
-0.000342241
-3.4853e-05
-0.000171485
0.000324559
-0.000587986
0.00091259
-0.00116827
0.00135902
-0.00184476
0.00164144
-0.00255983
0.00177061
-0.00326225
0.00176105
-0.00390389
0.00162149
-0.00443793
0.00135501
-0.00481933
0.000965075
-0.00500776
0.000463625
-0.00497258
-0.000121672
-0.00469896
-0.000743623
-0.00419495
-0.00133383
-0.00349718
-0.00180982
-0.00267372
-0.00208719
-0.00182023
-0.00210045
-0.00104651
-0.00182886
-0.000452685
-0.00131923
-0.000101661
-0.000693264
-0.000136514
-0.000226006
0.000550564
-0.000756221
0.00144281
-0.00147697
0.00207976
-0.00230258
0.00246705
-0.00316581
0.00263384
-0.00400999
0.00260523
-0.00478318
0.00239467
-0.00543491
0.00200673
-0.00591578
0.00144595
-0.00617962
0.000727466
-0.00618794
-0.00011335
-0.00591584
-0.00101573
-0.00536078
-0.00188889
-0.00455137
-0.00261922
-0.00355532
-0.00308324
-0.00248126
-0.00317451
-0.00146816
-0.00284196
-0.000657785
-0.00212961
-0.000155926
-0.00119512
-0.000292441
-0.0002721
0.000822664
-0.000899633
0.00207034
-0.00174157
0.0029217
-0.00269681
0.0034223
-0.00369076
0.00362778
-0.00466394
0.00357841
-0.00556353
0.00329427
-0.00633826
0.00278145
-0.00693628
0.00204397
-0.00730583
0.00109702
-0.00739887
-2.03171e-05
-0.00717522
-0.00123938
-0.00661468
-0.00244942
-0.00572833
-0.00350558
-0.0045741
-0.00423747
-0.00326798
-0.00448063
-0.00198087
-0.00412907
-0.000909634
-0.00320085
-0.000222198
-0.00188256
-0.000514639
-0.000307919
0.00113058
-0.00101204
0.00277446
-0.00195049
0.00386015
-0.00301051
0.00448231
-0.00411279
0.00473005
-0.00519766
0.00466328
-0.00621428
0.0043109
-0.00711336
0.00368054
-0.00784303
0.00277364
-0.00834738
0.00160136
-0.00856696
0.000199268
-0.00844572
-0.00136062
-0.00793803
-0.00295711
-0.00702738
-0.00441623
-0.00574886
-0.00551598
-0.00421358
-0.00601591
-0.00262052
-0.00572213
-0.00123375
-0.00458762
-0.000309939
-0.00280637
-0.000824578
-0.000331591
0.00146217
-0.00108741
0.00353028
-0.00209188
0.00486462
-0.00322456
0.00561499
-0.0044041
0.0059096
-0.00557311
0.00583229
-0.00668546
0.00542325
-0.007697
0.00469208
-0.00855915
0.00363579
-0.0092149
0.00225711
-0.00959725
0.000581627
-0.00963224
-0.00132564
-0.00924703
-0.00334231
-0.00838815
-0.00527511
-0.00705155
-0.00685258
-0.0053225
-0.00774497
-0.00341183
-0.0076328
-0.00165483
-0.00634463
-0.000429714
-0.00403148
-0.00125429
-0.000341865
0.00180404
-0.00112122
0.00430964
-0.00215569
0.00589908
-0.00332065
0.00677995
-0.00453503
0.00712398
-0.00574586
0.00704312
-0.00691442
0.00659181
-0.00800517
0.00578282
-0.00897731
0.00460792
-0.00977829
0.00305809
-0.0103393
0.00114264
-0.0105742
-0.00109073
-0.0103848
-0.00353174
-0.00967556
-0.00598434
-0.00838713
-0.00814101
-0.00655031
-0.00958179
-0.00435458
-0.00982853
-0.0021917
-0.0085075
-0.00059292
-0.00563026
-0.00184721
-0.000339252
0.00214329
-0.00111321
0.0050836
-0.00213785
0.00692373
-0.00328687
0.00792897
-0.00448133
0.00831844
-0.00567467
0.00823646
-0.00683806
0.00775521
-0.00794823
0.00689299
-0.00897741
0.0056371
-0.00988483
0.00396552
-0.0106092
0.00186701
-0.0110622
-0.000637718
-0.0111302
-0.00346378
-0.0106781
-0.00643637
-0.00958096
-0.00923819
-0.00778432
-0.0113784
-0.00540624
-0.0122066
-0.00284963
-0.0110641
-0.000811387
-0.00766851
-0.0026586
-0.000327582
0.00247087
-0.00107088
0.0058269
-0.00204563
0.00789848
-0.0031249
0.00900824
-0.00423378
0.00942732
-0.00533428
0.00933695
-0.00641004
0.00883097
-0.0074535
0.00793645
-0.00845507
0.00663867
-0.00939345
0.00490389
-0.0102263
0.00269986
-0.0108742
1.01834e-05
-0.0112299
-0.0031081
-0.011129
-0.00653723
-0.0103837
-0.00998346
-0.00883243
-0.0129297
-0.00646327
-0.0145758
-0.00360808
-0.0139193
-0.00109585
-0.0101807
-0.00375445
-0.000316075
0.00278695
-0.00101379
0.00652461
-0.00190343
0.00878812
-0.00285723
0.00996203
-0.00380731
0.0103774
-0.00472771
0.0102573
-0.00561759
0.00972085
-0.006488
0.00880687
-0.00735134
0.00750201
-0.00821172
0.00576427
-0.0090539
0.00354204
-0.00983565
0.000791936
-0.0104539
-0.00248981
-0.0107535
-0.00623771
-0.0105027
-0.0102342
-0.00943108
-0.0140013
-0.00734819
-0.0166587
-0.00440409
-0.0168634
-0.00145187
-0.013133
-0.00520632
-0.000322346
0.00310929
-0.000978252
0.00718052
-0.00175766
0.00956753
-0.00253169
0.0107361
-0.00324589
0.0110916
-0.00389265
0.0109041
-0.00449107
0.0103193
-0.00507349
0.00938928
-0.00567619
0.00810471
-0.00633143
0.0064195
-0.00705811
0.00426872
-0.00784941
0.00158323
-0.00864923
-0.00168998
-0.00932937
-0.00555757
-0.0096554
-0.00990821
-0.00927829
-0.0143785
-0.00781258
-0.0181244
-0.00511497
-0.019561
-0.00187149
-0.0163764
-0.00707781
-0.000377235
0.00348653
-0.00102251
0.00782579
-0.00167867
0.0102237
-0.0022193
0.0112767
-0.00261673
0.011489
-0.00289294
0.0111803
-0.00309343
0.0105198
-0.00327416
0.00957002
-0.00349489
0.00832544
-0.00381438
0.00673899
-0.00428452
0.00473886
-0.00494047
0.00223919
-0.00578139
-0.000849064
-0.00673945
-0.00459951
-0.0076283
-0.00901937
-0.00808337
-0.0139234
-0.00755968
-0.0186481
-0.00554737
-0.0215733
-0.0023192
-0.0196046
-0.00939701
-0.000533264
0.00401979
-0.00123016
0.00852268
-0.00175263
0.0107462
-0.00199427
0.0115183
-0.0019802
0.011475
-0.00177986
0.01098
-0.00147395
0.0102139
-0.00114413
0.00924021
-0.000871263
0.00805257
-0.000735553
0.00660327
-0.000815566
0.00481888
-0.0011841
0.00260772
-0.00189683
-0.000136339
-0.00296482
-0.00353151
-0.00429865
-0.00768554
-0.00560436
-0.0126177
-0.00627322
-0.0179792
-0.00543476
-0.0224118
-0.00271119
-0.0223282
-0.0121082
-0.000872654
0.00489245
-0.00169622
0.00934625
-0.00203542
0.0110854
-0.00185917
0.0113421
-0.00129308
0.0109089
-0.000479564
0.0101665
0.000455985
0.0092783
0.00140609
0.0082901
0.0022734
0.00718527
0.00296373
0.00591294
0.00338105
0.00440155
0.0034254
0.00256338
0.00299478
0.000294277
0.00200136
-0.00253809
0.000411238
-0.00609542
-0.00163677
-0.0105697
-0.00362038
-0.0159956
-0.0044263
-0.0216059
-0.00288415
-0.0238703
-0.0149924
-0.00149786
0.00639031
-0.00242144
0.0102698
-0.00235039
0.0110143
-0.00148014
0.0104718
-0.000114045
0.00954278
0.00150826
0.00854415
0.00321681
0.00756975
0.00488723
0.00661968
0.00641767
0.00565483
0.00771234
0.00461828
0.00867065
0.00344324
0.00918001
0.00205402
0.00910972
0.000364565
0.00831718
-0.00174555
0.00665602
-0.00443426
0.00406629
-0.00797993
0.000824057
-0.0127534
-0.00201558
-0.0187662
-0.0025067
-0.0233792
-0.0174991
-0.00234221
0.00873252
-0.00282533
0.0107529
-0.00159756
0.00978654
0.000553748
0.00832053
0.00309322
0.00700331
0.00572295
0.00591443
0.00827735
0.00501536
0.0106558
0.00424127
0.0127822
0.00352833
0.0145827
0.00281785
0.0159714
0.00205451
0.0168421
0.00118329
0.0170582
0.000148488
0.0164565
-0.00114388
0.0148223
-0.00280004
0.01192
-0.00507764
0.00763813
-0.00847147
0.00260434
-0.0137324
-0.000911891
-0.019863
-0.0184109
-0.00200176
0.0107343
0.000357803
0.00839339
0.00431601
0.00582833
0.00832568
0.00431086
0.0120774
0.00325158
0.0154736
0.0025182
0.0184927
0.00199633
0.0211357
0.00159821
0.0233979
0.00126612
0.0252557
0.000960142
0.0266604
0.000649754
0.0275331
0.000310635
0.0277633
-8.17002e-05
0.0271989
-0.000579477
0.0256173
-0.00121845
0.0226886
-0.00214901
0.0179461
-0.00372892
0.0109466
-0.00673296
0.00302309
-0.0119394
-0.0153879
0.0107343
0.0191277
0.024956
0.0292669
0.0325184
0.0350366
0.037033
0.0386312
0.0398973
0.0408574
0.0415072
0.0418178
0.0417361
0.0411566
0.0399382
0.0377892
0.0340603
0.0273273
0.0153879
)
;

boundaryField
{
    movingWall
    {
        type            calculated;
        value           uniform 0;
    }
    fixedWalls
    {
        type            calculated;
        value           uniform 0;
    }
    frontAndBack
    {
        type            empty;
    }
}


// ************************************************************************* //
