/*--------------------------------*- C++ -*----------------------------------*\
  =========                 |
  \\      /  F ield         | OpenFOAM: The Open Source CFD Toolbox
   \\    /   O peration     | Website:  https://openfoam.org
    \\  /    A nd           | Version:  13
     \\/     M anipulation  |
\*---------------------------------------------------------------------------*/
FoamFile
{
    format      ascii;
    class       volVectorField;
    location    "12";
    object      U;
}
// * * * * * * * * * * * * * * * * * * * * * * * * * * * * * * * * * * * * * //

dimensions      [0 1 -1 0 0 0 0];

internalField   nonuniform List<vector> 
400
(
(0.000210881 -0.000211203 0)
(-9.72951e-05 -1.35615e-05 0)
(-0.00150934 0.000201921 0)
(-0.00374185 0.000338888 0)
(-0.00647178 0.000410742 0)
(-0.0094063 0.000438471 0)
(-0.0122982 0.000432559 0)
(-0.0149167 0.000392585 0)
(-0.0170245 0.000312167 0)
(-0.0183778 0.000185805 0)
(-0.0187524 1.5775e-05 0)
(-0.0179934 -0.000185148 0)
(-0.016074 -0.000385417 0)
(-0.0131459 -0.000543603 0)
(-0.00956164 -0.000615831 0)
(-0.00584469 -0.000569974 0)
(-0.00259879 -0.000399582 0)
(-0.000355656 -0.0001353 0)
(0.000576161 0.000140872 0)
(0.000317265 0.00030416 0)
(1.39252e-06 9.47419e-05 0)
(-0.00200502 0.0018633 0)
(-0.00636896 0.0036414 0)
(-0.0124504 0.00486908 0)
(-0.0195415 0.00551698 0)
(-0.0269939 0.00565489 0)
(-0.0342098 0.00533289 0)
(-0.0406155 0.0045587 0)
(-0.0456398 0.00332361 0)
(-0.0487322 0.00164669 0)
(-0.0494272 -0.000381828 0)
(-0.0474349 -0.00257438 0)
(-0.0427517 -0.00464107 0)
(-0.03575 -0.00622815 0)
(-0.0272031 -0.00699086 0)
(-0.018225 -0.00669647 0)
(-0.0100942 -0.00533006 0)
(-0.00396788 -0.00317185 0)
(-0.000531855 -0.000848196 0)
(0.000241487 0.000604622 0)
(-0.000275856 0.00167241 0)
(-0.00435213 0.00638792 0)
(-0.0117322 0.010531 0)
(-0.0213502 0.0133308 0)
(-0.0321857 0.0147456 0)
(-0.0433576 0.014892 0)
(-0.0540344 0.0138574 0)
(-0.0634102 0.0116656 0)
(-0.070694 0.00833108 0)
(-0.0751427 0.0039479 0)
(-0.0761432 -0.0012268 0)
(-0.073324 -0.00672266 0)
(-0.066681 -0.0118633 0)
(-0.0566848 -0.015842 0)
(-0.0443257 -0.0178777 0)
(-0.0310623 -0.0174348 0)
(-0.0186255 -0.0144589 0)
(-0.00866547 -0.00955209 0)
(-0.00231673 -0.00402953 0)
(8.72309e-05 5.37731e-05 0)
(-0.000527176 0.00451394 0)
(-0.00662218 0.0135118 0)
(-0.0169008 0.020659 0)
(-0.0297996 0.0252987 0)
(-0.043988 0.027504 0)
(-0.0584125 0.027482 0)
(-0.0720922 0.0253692 0)
(-0.0840804 0.0212127 0)
(-0.093449 0.0150647 0)
(-0.0993241 0.00711915 0)
(-0.100969 -0.00216534 0)
(-0.097897 -0.0119944 0)
(-0.0900106 -0.0212394 0)
(-0.0777356 -0.0285522 0)
(-0.0621176 -0.0325944 0)
(-0.0448302 -0.0323867 0)
(-0.0280166 -0.0277143 0)
(-0.0139016 -0.0194562 0)
(-0.00426808 -0.00967113 0)
(-3.78658e-05 -0.00146413 0)
(-0.000742955 0.00852268 0)
(-0.00866152 0.0230479 0)
(-0.0215804 0.0337531 0)
(-0.0374488 0.0404079 0)
(-0.0546468 0.0433694 0)
(-0.0719941 0.0430113 0)
(-0.0884264 0.0395464 0)
(-0.102927 0.0330508 0)
(-0.114492 0.0236105 0)
(-0.122149 0.0115078 0)
(-0.125026 -0.00261443 0)
(-0.122455 -0.0176521 0)
(-0.11412 -0.0320145 0)
(-0.100243 -0.0437495 0)
(-0.0817565 -0.0508198 0)
(-0.0604362 -0.0515823 0)
(-0.0388433 -0.0454166 0)
(-0.0199425 -0.0333094 0)
(-0.00645157 -0.0180643 0)
(-0.000142853 -0.00399772 0)
(-0.000921003 0.0135461 0)
(-0.0103891 0.0347146 0)
(-0.0255792 0.0494865 0)
(-0.0440179 0.0583229 0)
(-0.0638442 0.0620343 0)
(-0.0837976 0.0612517 0)
(-0.102788 0.0563005 0)
(-0.119791 0.0472878 0)
(-0.133776 0.0343091 0)
(-0.143698 0.0176862 0)
(-0.148538 -0.00182173 0)
(-0.147379 -0.0228548 0)
(-0.139563 -0.0434126 0)
(-0.124933 -0.0608976 0)
(-0.104111 -0.0724086 0)
(-0.0787998 -0.0753285 0)
(-0.0519294 -0.0682281 0)
(-0.0273655 -0.0518696 0)
(-0.00913565 -0.0297464 0)
(-0.000262323 -0.0076992 0)
(-0.00105576 0.0193971 0)
(-0.0117329 0.0481401 0)
(-0.0287213 0.0674227 0)
(-0.0492193 0.0786107 0)
(-0.0711888 0.0831201 0)
(-0.0933378 0.0819311 0)
(-0.114605 0.0755233 0)
(-0.134016 0.0640335 0)
(-0.150572 0.0475277 0)
(-0.163194 0.0262918 0)
(-0.170713 0.00109523 0)
(-0.171944 -0.0265809 0)
(-0.165809 -0.0544109 0)
(-0.151593 -0.079171 0)
(-0.129365 -0.0969533 0)
(-0.10048 -0.103797 0)
(-0.0680323 -0.0968845 0)
(-0.036838 -0.0761586 0)
(-0.0126732 -0.0455724 0)
(-0.000440523 -0.012897 0)
(-0.00113983 0.0258502 0)
(-0.0126228 0.0628664 0)
(-0.0308349 0.0870112 0)
(-0.0527496 0.100709 0)
(-0.0762184 0.106108 0)
(-0.099964 0.104626 0)
(-0.123005 0.0969415 0)
(-0.144477 0.083224 0)
(-0.163476 0.0634667 0)
(-0.178959 0.0378301 0)
(-0.18968 0.00695983 0)
(-0.194206 -0.0277223 0)
(-0.191012 -0.0637229 0)
(-0.178724 -0.0973101 0)
(-0.156603 -0.123522 0)
(-0.125263 -0.136709 0)
(-0.087528 -0.13193 0)
(-0.0489537 -0.107341 0)
(-0.0174548 -0.0667201 0)
(-0.000732526 -0.0201239 0)
(-0.00116899 0.0326453 0)
(-0.0130118 0.0783562 0)
(-0.0317871 0.107583 0)
(-0.0543395 0.123895 0)
(-0.0784689 0.130273 0)
(-0.102952 0.128655 0)
(-0.126934 0.119973 0)
(-0.149721 0.104442 0)
(-0.170583 0.081952 0)
(-0.188611 0.052454 0)
(-0.202604 0.0163271 0)
(-0.211002 -0.0252519 0)
(-0.211918 -0.0698781 0)
(-0.203312 -0.113564 0)
(-0.183441 -0.150429 0)
(-0.151727 -0.17295 0)
(-0.110042 -0.173299 0)
(-0.0640469 -0.146445 0)
(-0.0238851 -0.0946127 0)
(-0.00121414 -0.0301354 0)
(-0.00114967 0.0395092 0)
(-0.0129149 0.0940233 0)
(-0.031552 0.128368 0)
(-0.0538499 0.147278 0)
(-0.0776008 0.154644 0)
(-0.10167 0.153009 0)
(-0.125372 0.143621 0)
(-0.148241 0.126776 0)
(-0.169809 0.102258 0)
(-0.189427 0.0697569 0)
(-0.206105 0.0292693 0)
(-0.218352 -0.0184752 0)
(-0.224141 -0.0714414 0)
(-0.220916 -0.125803 0)
(-0.205882 -0.175151 0)
(-0.176892 -0.210234 0)
(-0.134033 -0.219784 0)
(-0.0819188 -0.193884 0)
(-0.0323402 -0.130729 0)
(-0.00199887 -0.0439259 0)
(-0.00110941 0.0462046 0)
(-0.0124621 0.109301 0)
(-0.0303012 0.148548 0)
(-0.0513966 0.169824 0)
(-0.0735642 0.178007 0)
(-0.0957984 0.176332 0)
(-0.117628 0.166439 0)
(-0.138873 0.148763 0)
(-0.15941 0.123015 0)
(-0.178974 0.0886253 0)
(-0.196972 0.0451583 0)
(-0.212212 -0.00724121 0)
(-0.222874 -0.0673525 0)
(-0.226221 -0.131857 0)
(-0.218593 -0.194513 0)
(-0.196148 -0.24497 0)
(-0.156431 -0.268526 0)
(-0.101454 -0.248789 0)
(-0.0430612 -0.176238 0)
(-0.00326056 -0.0627297 0)
(-0.00111201 0.0526149 0)
(-0.0119652 0.123751 0)
(-0.0285043 0.167344 0)
(-0.0474781 0.19042 0)
(-0.0667564 0.198958 0)
(-0.0855355 0.196977 0)
(-0.103624 0.186591 0)
(-0.121184 0.168444 0)
(-0.138498 0.142235 0)
(-0.155771 0.107186 0)
(-0.172943 0.0624378 0)
(-0.189506 0.00746449 0)
(-0.204073 -0.0574475 0)
(-0.214107 -0.130099 0)
(-0.215732 -0.205242 0)
(-0.20367 -0.272551 0)
(-0.172556 -0.314765 0)
(-0.120208 -0.308257 0)
(-0.0559252 -0.231374 0)
(-0.00525463 -0.0879711 0)
(-0.00128399 0.0588774 0)
(-0.0120085 0.137222 0)
(-0.0270299 0.184129 0)
(-0.0430698 0.207954 0)
(-0.0581128 0.215981 0)
(-0.0717057 0.213117 0)
(-0.0840465 0.202005 0)
(-0.0957064 0.183555 0)
(-0.107412 0.157526 0)
(-0.119885 0.123014 0)
(-0.13368 0.0788166 0)
(-0.148992 0.023777 0)
(-0.165285 -0.042715 0)
(-0.180839 -0.120056 0)
(-0.192158 -0.204801 0)
(-0.193355 -0.28814 0)
(-0.176507 -0.352144 0)
(-0.134163 -0.366814 0)
(-0.0700557 -0.294571 0)
(-0.00831449 -0.121097 0)
(-0.00186317 0.0655899 0)
(-0.0135752 0.150022 0)
(-0.0272241 0.198519 0)
(-0.0396216 0.221362 0)
(-0.0490234 0.227509 0)
(-0.0556112 0.222844 0)
(-0.0601507 0.210542 0)
(-0.0637053 0.191773 0)
(-0.0674589 0.166393 0)
(-0.0726177 0.133457 0)
(-0.080316 0.091565 0)
(-0.0914807 0.0391067 0)
(-0.106551 -0.0254206 0)
(-0.125008 -0.102913 0)
(-0.144573 -0.192311 0)
(-0.159974 -0.287853 0)
(-0.161974 -0.373685 0)
(-0.137833 -0.416486 0)
(-0.0832953 -0.361487 0)
(-0.0127738 -0.163204 0)
(-0.00330186 0.0741718 0)
(-0.0182251 0.163122 0)
(-0.0308748 0.210398 0)
(-0.0387728 0.229583 0)
(-0.0408247 0.231894 0)
(-0.03834 0.224204 0)
(-0.0329099 0.210091 0)
(-0.0261874 0.190877 0)
(-0.0198004 0.166474 0)
(-0.0153577 0.135937 0)
(-0.0144536 0.0977908 0)
(-0.0186274 0.0502011 0)
(-0.02923 -0.00888584 0)
(-0.0470745 -0.0815575 0)
(-0.071718 -0.169128 0)
(-0.0998503 -0.269929 0)
(-0.123039 -0.373224 0)
(-0.124637 -0.447615 0)
(-0.091639 -0.424181 0)
(-0.018712 -0.214319 0)
(-0.00637831 0.0873149 0)
(-0.0281595 0.177957 0)
(-0.0396177 0.219377 0)
(-0.0411168 0.230992 0)
(-0.0330524 0.226953 0)
(-0.018646 0.214881 0)
(-0.000626276 0.198391 0)
(0.0186901 0.17869 0)
(0.037288 0.155609 0)
(0.0532857 0.128181 0)
(0.0648026 0.094946 0)
(0.0698954 0.0540666 0)
(0.0665221 0.00334934 0)
(0.0527183 -0.0598784 0)
(0.0269523 -0.138615 0)
(-0.0103715 -0.235312 0)
(-0.0542322 -0.346729 0)
(-0.0869189 -0.450019 0)
(-0.0886493 -0.470529 0)
(-0.0253157 -0.272054 0)
(-0.0125333 0.110603 0)
(-0.0453392 0.196566 0)
(-0.0517436 0.224245 0)
(-0.0413588 0.222722 0)
(-0.0177076 0.209401 0)
(0.0130994 0.191799 0)
(0.0470664 0.172797 0)
(0.0813577 0.153 0)
(0.1138 0.13191 0)
(0.142481 0.108463 0)
(0.165482 0.0812609 0)
(0.180722 0.048639 0)
(0.18577 0.00861678 0)
(0.177945 -0.041398 0)
(0.154162 -0.104931 0)
(0.111964 -0.187277 0)
(0.0508062 -0.29319 0)
(-0.0145923 -0.414333 0)
(-0.0644686 -0.484949 0)
(-0.0296061 -0.330326 0)
(-0.0216084 0.148458 0)
(-0.0652818 0.213099 0)
(-0.0495625 0.214939 0)
(-0.0133506 0.194872 0)
(0.0354071 0.171353 0)
(0.0881033 0.149348 0)
(0.140521 0.129635 0)
(0.190227 0.111616 0)
(0.235594 0.094254 0)
(0.275202 0.0763696 0)
(0.307505 0.0567143 0)
(0.330653 0.0339484 0)
(0.342199 0.0065406 0)
(0.339319 -0.0274698 0)
(0.318089 -0.0710701 0)
(0.274316 -0.130143 0)
(0.201906 -0.214913 0)
(0.107749 -0.334919 0)
(-0.00330968 -0.451401 0)
(-0.023282 -0.378677 0)
(-0.0274604 0.229377 0)
(-0.0364728 0.223148 0)
(0.0465419 0.176926 0)
(0.126942 0.138663 0)
(0.20538 0.109389 0)
(0.277141 0.0877576 0)
(0.341329 0.0714752 0)
(0.397937 0.058511 0)
(0.447025 0.0473571 0)
(0.488355 0.0368592 0)
(0.521226 0.0260613 0)
(0.544419 0.0141009 0)
(0.555975 9.56466e-05 0)
(0.553557 -0.0169477 0)
(0.533123 -0.0390138 0)
(0.490422 -0.0704067 0)
(0.415207 -0.120913 0)
(0.304824 -0.213371 0)
(0.12583 -0.348315 0)
(0.0236549 -0.378782 0)
(0.214452 0.135809 0)
(0.285176 0.0984647 0)
(0.444699 0.0569218 0)
(0.54793 0.0365805 0)
(0.621625 0.0241586 0)
(0.678146 0.0163079 0)
(0.722656 0.011325 0)
(0.758198 0.00800083 0)
(0.786612 0.00557368 0)
(0.808793 0.00357801 0)
(0.824926 0.00170578 0)
(0.83468 -0.000256963 0)
(0.83718 -0.00249525 0)
(0.83111 -0.00504081 0)
(0.813512 -0.00849533 0)
(0.781935 -0.0135034 0)
(0.724088 -0.0231793 0)
(0.635283 -0.0406061 0)
(0.431311 -0.091299 0)
(0.270898 -0.153525 0)
)
;

boundaryField
{
    movingWall
    {
        type            fixedValue;
        value           uniform (1 0 0);
    }
    fixedWalls
    {
        type            fixedValue;
        value           uniform (0 0 0);
    }
    frontAndBack
    {
        type            empty;
    }
}


// ************************************************************************* //
