/*--------------------------------*- C++ -*----------------------------------*\
  =========                 |
  \\      /  F ield         | OpenFOAM: The Open Source CFD Toolbox
   \\    /   O peration     | Website:  https://openfoam.org
    \\  /    A nd           | Version:  13
     \\/     M anipulation  |
\*---------------------------------------------------------------------------*/
FoamFile
{
    format      ascii;
    class       volVectorField;
    location    "12";
    object      U_0;
}
// * * * * * * * * * * * * * * * * * * * * * * * * * * * * * * * * * * * * * //

dimensions      [0 1 -1 0 0 0 0];

internalField   nonuniform List<vector> 
400
(
(0.000210899 -0.00021116 0)
(-9.72666e-05 -1.35444e-05 0)
(-0.00150929 0.000201923 0)
(-0.00374173 0.000338883 0)
(-0.00647157 0.000410732 0)
(-0.00940598 0.000438458 0)
(-0.0122977 0.000432544 0)
(-0.0149161 0.000392571 0)
(-0.0170239 0.000312156 0)
(-0.0183772 0.000185799 0)
(-0.0187518 1.57759e-05 0)
(-0.0179928 -0.000185139 0)
(-0.0160735 -0.000385401 0)
(-0.0131455 -0.000543582 0)
(-0.00956144 -0.000615811 0)
(-0.00584462 -0.000569959 0)
(-0.00259881 -0.000399576 0)
(-0.000355708 -0.000135304 0)
(0.000576116 0.000140859 0)
(0.000317252 0.000304147 0)
(1.39873e-06 9.48044e-05 0)
(-0.00200494 0.00186328 0)
(-0.00636872 0.00364129 0)
(-0.0124499 0.00486892 0)
(-0.0195408 0.00551679 0)
(-0.0269929 0.00565468 0)
(-0.0342085 0.00533269 0)
(-0.040614 0.00455854 0)
(-0.0456381 0.0033235 0)
(-0.0487304 0.00164666 0)
(-0.0494254 -0.000381769 0)
(-0.0474333 -0.00257423 0)
(-0.0427504 -0.00464086 0)
(-0.035749 -0.0062279 0)
(-0.0272024 -0.00699061 0)
(-0.0182246 -0.00669627 0)
(-0.0100941 -0.00532994 0)
(-0.00396788 -0.00317181 0)
(-0.000531897 -0.00084823 0)
(0.000241472 0.000604576 0)
(-0.000275841 0.0016724 0)
(-0.00435194 0.00638772 0)
(-0.0117317 0.0105306 0)
(-0.0213493 0.0133303 0)
(-0.0321843 0.014745 0)
(-0.0433559 0.0148914 0)
(-0.0540322 0.0138569 0)
(-0.0634078 0.0116652 0)
(-0.0706913 0.00833084 0)
(-0.0751399 0.00394786 0)
(-0.0761405 -0.00122662 0)
(-0.0733215 -0.00672227 0)
(-0.0666789 -0.0118627 0)
(-0.0566831 -0.0158413 0)
(-0.0443245 -0.017877 0)
(-0.0310615 -0.0174343 0)
(-0.0186251 -0.0144585 0)
(-0.00866535 -0.00955192 0)
(-0.00231672 -0.00402954 0)
(8.72203e-05 5.37083e-05 0)
(-0.000527149 0.0045138 0)
(-0.00662188 0.0135113 0)
(-0.0169 0.0206582 0)
(-0.0297983 0.0252977 0)
(-0.0439861 0.027503 0)
(-0.05841 0.027481 0)
(-0.0720893 0.0253683 0)
(-0.0840771 0.021212 0)
(-0.0934454 0.0150643 0)
(-0.0993205 0.00711913 0)
(-0.100965 -0.00216498 0)
(-0.0978938 -0.0119937 0)
(-0.0900077 -0.0212384 0)
(-0.0777333 -0.028551 0)
(-0.0621159 -0.0325932 0)
(-0.0448291 -0.0323857 0)
(-0.0280159 -0.0277136 0)
(-0.0139013 -0.0194558 0)
(-0.00426801 -0.00967103 0)
(-3.78717e-05 -0.00146419 0)
(-0.000742917 0.00852235 0)
(-0.00866112 0.023047 0)
(-0.0215795 0.0337517 0)
(-0.0374472 0.0404062 0)
(-0.0546445 0.0433677 0)
(-0.0719911 0.0430097 0)
(-0.0884229 0.0395451 0)
(-0.102923 0.0330498 0)
(-0.114488 0.02361 0)
(-0.122145 0.0115078 0)
(-0.125022 -0.00261386 0)
(-0.122451 -0.0176511 0)
(-0.114117 -0.032013 0)
(-0.10024 -0.0437478 0)
(-0.0817543 -0.050818 0)
(-0.0604347 -0.0515807 0)
(-0.0388423 -0.0454154 0)
(-0.0199421 -0.0333086 0)
(-0.00645144 -0.018064 0)
(-0.000142854 -0.00399774 0)
(-0.000920957 0.0135456 0)
(-0.0103886 0.0347132 0)
(-0.0255781 0.0494845 0)
(-0.044016 0.0583206 0)
(-0.0638417 0.0620319 0)
(-0.0837944 0.0612495 0)
(-0.102784 0.0562987 0)
(-0.119787 0.0472865 0)
(-0.133772 0.0343084 0)
(-0.143694 0.0176862 0)
(-0.148534 -0.00182098 0)
(-0.147374 -0.0228533 0)
(-0.139559 -0.0434106 0)
(-0.12493 -0.0608952 0)
(-0.104108 -0.0724062 0)
(-0.0787979 -0.0753262 0)
(-0.0519282 -0.0682263 0)
(-0.0273649 -0.0518684 0)
(-0.00913545 -0.0297458 0)
(-0.000262319 -0.00769913 0)
(-0.00105571 0.0193962 0)
(-0.0117324 0.0481381 0)
(-0.0287201 0.06742 0)
(-0.0492174 0.0786076 0)
(-0.0711862 0.083117 0)
(-0.0933345 0.0819283 0)
(-0.114601 0.0755209 0)
(-0.134012 0.0640319 0)
(-0.150567 0.0475269 0)
(-0.163189 0.0262918 0)
(-0.170709 0.00109614 0)
(-0.17194 -0.0265791 0)
(-0.165805 -0.0544084 0)
(-0.15159 -0.079168 0)
(-0.129362 -0.0969502 0)
(-0.100478 -0.103794 0)
(-0.0680308 -0.096882 0)
(-0.0368372 -0.0761568 0)
(-0.0126729 -0.0455715 0)
(-0.000440513 -0.0128968 0)
(-0.00113979 0.0258491 0)
(-0.0126223 0.0628639 0)
(-0.0308338 0.0870078 0)
(-0.0527479 0.100705 0)
(-0.0762161 0.106104 0)
(-0.099961 0.104622 0)
(-0.123002 0.0969387 0)
(-0.144474 0.083222 0)
(-0.163472 0.0634657 0)
(-0.178955 0.0378301 0)
(-0.189676 0.00696088 0)
(-0.194203 -0.0277203 0)
(-0.191008 -0.0637201 0)
(-0.178721 -0.0973067 0)
(-0.1566 -0.123518 0)
(-0.125261 -0.136705 0)
(-0.0875264 -0.131927 0)
(-0.0489528 -0.107339 0)
(-0.0174545 -0.0667187 0)
(-0.000732508 -0.0201236 0)
(-0.00116896 0.032644 0)
(-0.0130115 0.0783532 0)
(-0.0317862 0.107579 0)
(-0.0543381 0.123891 0)
(-0.078467 0.130268 0)
(-0.10295 0.128651 0)
(-0.126932 0.11997 0)
(-0.149718 0.10444 0)
(-0.17058 0.0819509 0)
(-0.188608 0.052454 0)
(-0.202601 0.0163283 0)
(-0.210999 -0.0252498 0)
(-0.211915 -0.069875 0)
(-0.20331 -0.11356 0)
(-0.183439 -0.150425 0)
(-0.151725 -0.172946 0)
(-0.110041 -0.173295 0)
(-0.064046 -0.146442 0)
(-0.0238847 -0.0946109 0)
(-0.00121411 -0.0301349 0)
(-0.00114966 0.0395078 0)
(-0.0129147 0.0940199 0)
(-0.0315515 0.128364 0)
(-0.053849 0.147273 0)
(-0.0775996 0.154639 0)
(-0.101669 0.153005 0)
(-0.12537 0.143618 0)
(-0.148239 0.126774 0)
(-0.169807 0.102257 0)
(-0.189425 0.0697569 0)
(-0.206103 0.0292705 0)
(-0.21835 -0.0184729 0)
(-0.224139 -0.0714383 0)
(-0.220915 -0.1258 0)
(-0.205881 -0.175147 0)
(-0.176891 -0.21023 0)
(-0.134032 -0.21978 0)
(-0.0819178 -0.193881 0)
(-0.0323398 -0.130727 0)
(-0.00199883 -0.0439252 0)
(-0.00110942 0.0462031 0)
(-0.012462 0.109297 0)
(-0.0303011 0.148544 0)
(-0.0513963 0.169819 0)
(-0.0735638 0.178002 0)
(-0.0957979 0.176328 0)
(-0.117628 0.166435 0)
(-0.138873 0.148761 0)
(-0.159409 0.123014 0)
(-0.178974 0.0886253 0)
(-0.196972 0.0451594 0)
(-0.212212 -0.00723914 0)
(-0.222873 -0.0673495 0)
(-0.22622 -0.131853 0)
(-0.218593 -0.194509 0)
(-0.196147 -0.244966 0)
(-0.15643 -0.268521 0)
(-0.101453 -0.248785 0)
(-0.0430608 -0.176235 0)
(-0.00326051 -0.0627287 0)
(-0.00111204 0.0526134 0)
(-0.0119654 0.123748 0)
(-0.0285046 0.167339 0)
(-0.0474785 0.190414 0)
(-0.066757 0.198953 0)
(-0.0855363 0.196973 0)
(-0.103625 0.186588 0)
(-0.121185 0.168441 0)
(-0.138499 0.142234 0)
(-0.155773 0.107186 0)
(-0.172945 0.062439 0)
(-0.189508 0.00746653 0)
(-0.204074 -0.0574446 0)
(-0.214108 -0.130095 0)
(-0.215733 -0.205238 0)
(-0.20367 -0.272547 0)
(-0.172556 -0.314761 0)
(-0.120208 -0.308253 0)
(-0.0559249 -0.231371 0)
(-0.00525457 -0.0879699 0)
(-0.00128404 0.0588761 0)
(-0.0120089 0.137219 0)
(-0.0270307 0.184125 0)
(-0.043071 0.207949 0)
(-0.0581143 0.215976 0)
(-0.0717076 0.213113 0)
(-0.0840487 0.202002 0)
(-0.0957089 0.183553 0)
(-0.107415 0.157525 0)
(-0.119888 0.123014 0)
(-0.133683 0.078818 0)
(-0.148995 0.0237792 0)
(-0.165288 -0.0427124 0)
(-0.180842 -0.120053 0)
(-0.19216 -0.204798 0)
(-0.193356 -0.288137 0)
(-0.176507 -0.35214 0)
(-0.134163 -0.366811 0)
(-0.0700556 -0.294568 0)
(-0.00831443 -0.121095 0)
(-0.00186323 0.0655889 0)
(-0.0135757 0.150019 0)
(-0.0272252 0.198515 0)
(-0.0396234 0.221358 0)
(-0.0490258 0.227505 0)
(-0.0556142 0.222841 0)
(-0.060154 0.210539 0)
(-0.063709 0.191771 0)
(-0.0674628 0.166392 0)
(-0.0726217 0.133458 0)
(-0.0803201 0.0915664 0)
(-0.0914847 0.0391088 0)
(-0.106555 -0.0254181 0)
(-0.125011 -0.102911 0)
(-0.144576 -0.192309 0)
(-0.159976 -0.287851 0)
(-0.161976 -0.373683 0)
(-0.137833 -0.416483 0)
(-0.0832954 -0.361484 0)
(-0.0127738 -0.163203 0)
(-0.00330193 0.0741711 0)
(-0.0182257 0.16312 0)
(-0.0308763 0.210395 0)
(-0.038775 0.229579 0)
(-0.0408278 0.23189 0)
(-0.0383437 0.224201 0)
(-0.0329141 0.210088 0)
(-0.0261919 0.190876 0)
(-0.0198052 0.166474 0)
(-0.0153625 0.135938 0)
(-0.0144583 0.0977922 0)
(-0.0186319 0.0502029 0)
(-0.0292342 -0.00888371 0)
(-0.0470784 -0.0815553 0)
(-0.0717215 -0.169125 0)
(-0.0998531 -0.269927 0)
(-0.123041 -0.373222 0)
(-0.124638 -0.447612 0)
(-0.0916395 -0.424179 0)
(-0.018712 -0.214318 0)
(-0.00637837 0.0873145 0)
(-0.0281601 0.177956 0)
(-0.0396193 0.219375 0)
(-0.0411193 0.230989 0)
(-0.0330557 0.226951 0)
(-0.0186501 0.214879 0)
(-0.000630859 0.198389 0)
(0.0186851 0.178689 0)
(0.037283 0.155609 0)
(0.0532807 0.128182 0)
(0.0647978 0.0949471 0)
(0.0698909 0.0540682 0)
(0.0665179 0.00335112 0)
(0.0527146 -0.0598766 0)
(0.026949 -0.138613 0)
(-0.0103743 -0.235311 0)
(-0.0542343 -0.346728 0)
(-0.0869203 -0.450017 0)
(-0.0886499 -0.470527 0)
(-0.0253157 -0.272053 0)
(-0.0125334 0.110603 0)
(-0.0453398 0.196566 0)
(-0.051745 0.224244 0)
(-0.041361 0.22272 0)
(-0.0177106 0.209399 0)
(0.0130956 0.191797 0)
(0.0470621 0.172796 0)
(0.081353 0.152999 0)
(0.113795 0.13191 0)
(0.142476 0.108463 0)
(0.165478 0.0812617 0)
(0.180718 0.0486402 0)
(0.185766 0.00861814 0)
(0.177941 -0.0413966 0)
(0.154159 -0.10493 0)
(0.111962 -0.187276 0)
(0.0508044 -0.293189 0)
(-0.0145936 -0.414332 0)
(-0.0644692 -0.484948 0)
(-0.0296061 -0.330326 0)
(-0.0216084 0.148458 0)
(-0.0652821 0.213098 0)
(-0.0495632 0.214938 0)
(-0.0133521 0.194871 0)
(0.0354049 0.171352 0)
(0.0881004 0.149346 0)
(0.140517 0.129634 0)
(0.190224 0.111615 0)
(0.23559 0.0942537 0)
(0.275198 0.0763697 0)
(0.307501 0.0567148 0)
(0.33065 0.0339492 0)
(0.342196 0.00654149 0)
(0.339316 -0.0274689 0)
(0.318087 -0.0710694 0)
(0.274314 -0.130142 0)
(0.201905 -0.214913 0)
(0.107749 -0.334919 0)
(-0.00331016 -0.4514 0)
(-0.0232821 -0.378677 0)
(-0.0274604 0.229377 0)
(-0.0364728 0.223148 0)
(0.0465418 0.176925 0)
(0.126941 0.138662 0)
(0.205379 0.109389 0)
(0.27714 0.087757 0)
(0.341327 0.0714747 0)
(0.397934 0.0585107 0)
(0.447022 0.0473569 0)
(0.488352 0.0368593 0)
(0.521223 0.0260615 0)
(0.544417 0.0141013 0)
(0.555973 9.60596e-05 0)
(0.553556 -0.0169473 0)
(0.533122 -0.0390135 0)
(0.490421 -0.0704064 0)
(0.415206 -0.120913 0)
(0.304823 -0.213371 0)
(0.12583 -0.348315 0)
(0.0236549 -0.378782 0)
(0.214452 0.135809 0)
(0.285177 0.0984648 0)
(0.444699 0.0569218 0)
(0.54793 0.0365805 0)
(0.621625 0.0241586 0)
(0.678145 0.0163078 0)
(0.722656 0.011325 0)
(0.758197 0.00800081 0)
(0.786611 0.00557369 0)
(0.808792 0.00357804 0)
(0.824925 0.00170583 0)
(0.834679 -0.000256897 0)
(0.837179 -0.00249519 0)
(0.83111 -0.00504076 0)
(0.813512 -0.0084953 0)
(0.781935 -0.0135034 0)
(0.724088 -0.0231793 0)
(0.635283 -0.0406061 0)
(0.431311 -0.0912991 0)
(0.270898 -0.153525 0)
)
;

boundaryField
{
    movingWall
    {
        type            calculated;
        value           uniform (1 0 0);
    }
    fixedWalls
    {
        type            calculated;
        value           uniform (0 0 0);
    }
    frontAndBack
    {
        type            empty;
    }
}


// ************************************************************************* //
