/*--------------------------------*- C++ -*----------------------------------*\
  =========                 |
  \\      /  F ield         | OpenFOAM: The Open Source CFD Toolbox
   \\    /   O peration     | Website:  https://openfoam.org
    \\  /    A nd           | Version:  13
     \\/     M anipulation  |
\*---------------------------------------------------------------------------*/
FoamFile
{
    format      ascii;
    class       volScalarField;
    location    "28";
    object      p;
}
// * * * * * * * * * * * * * * * * * * * * * * * * * * * * * * * * * * * * * //

dimensions      [0 2 -2 0 0 0 0];

internalField   nonuniform List<scalar> 
400
(
5.46091e-07
-0.000571921
-0.00121551
-0.00171838
-0.00195871
-0.00188418
-0.00146996
-0.000705009
0.000401813
0.00180647
0.0034152
0.00507552
0.00659156
0.00775161
0.00838032
0.00839615
0.00785587
0.00696944
0.00604855
0.00549487
0.000570442
-1.98235e-05
-0.00056919
-0.000956544
-0.00113153
-0.00106149
-0.000725479
-0.000108732
0.000789288
0.00193997
0.0032703
0.00466064
0.00594122
0.00693033
0.00747477
0.00750232
0.00705975
0.00631938
0.0055438
0.00497318
0.00124619
0.000493456
-8.62415e-05
-0.000440875
-0.000605657
-0.0005758
-0.000336785
0.000133094
0.000850207
0.00180741
0.00295537
0.00419231
0.00536496
0.00629435
0.00681979
0.00685344
0.0064213
0.00566874
0.00480949
0.00403774
0.00174108
0.00076418
7.41379e-05
-0.000321459
-0.000536628
-0.000592237
-0.000477732
-0.000159651
0.000400545
0.00122261
0.00228222
0.0034934
0.00470225
0.00571028
0.00631995
0.00639871
0.00593408
0.00505114
0.00394898
0.00284501
0.00179596
0.000596231
-0.000227208
-0.000704337
-0.00101764
-0.00120672
-0.00125885
-0.00112248
-0.000729961
-2.72792e-05
0.00099231
0.00226416
0.00363063
0.00486182
0.00569925
0.00593291
0.00548099
0.00443608
0.00300053
0.00146269
0.00119519
-0.00020251
-0.00116277
-0.00175219
-0.0022109
-0.00259014
-0.00286872
-0.00297064
-0.00279135
-0.00223234
-0.00124347
0.000151123
0.00179345
0.00342044
0.00469082
0.00527533
0.00497251
0.00380629
0.00197962
-0.00010343
-0.000241123
-0.00179957
-0.00289171
-0.00362168
-0.00427716
-0.00491607
-0.00550449
-0.00593693
-0.00606394
-0.00572781
-0.00480627
-0.00328453
-0.0012697
0.000947324
0.00292691
0.00417048
0.00427988
0.00313617
0.000903239
-0.00185562
-0.00265141
-0.00432581
-0.00554069
-0.00643871
-0.00734653
-0.00832713
-0.00933326
-0.0102281
-0.0108106
-0.0108498
-0.0101328
-0.0085383
-0.00610637
-0.00311158
-8.57704e-05
0.00225568
0.00321329
0.00239592
-0.000176727
-0.00375231
-0.00612078
-0.00786114
-0.00918415
-0.0102712
-0.0114824
-0.0128887
-0.0144337
-0.0159522
-0.0171889
-0.0178269
-0.0175346
-0.016042
-0.0132524
-0.00935679
-0.00493534
-0.000940739
0.00150874
0.00155523
-0.0011365
-0.00564614
-0.0106709
-0.012423
-0.0138269
-0.0151014
-0.0166415
-0.0185351
-0.0207264
-0.0230297
-0.0251397
-0.0266484
-0.0270833
-0.0259768
-0.0230334
-0.0182533
-0.012167
-0.00592144
-0.00114161
0.000603684
-0.00173073
-0.00719449
-0.0162599
-0.0179647
-0.0193951
-0.0208055
-0.0226408
-0.0250227
-0.0279106
-0.0311107
-0.0342767
-0.036913
-0.0383945
-0.0380059
-0.0352833
-0.0298327
-0.0220044
-0.0130057
-0.00495912
-0.000374897
-0.00151537
-0.00772001
-0.0228023
-0.0243894
-0.025742
-0.0271477
-0.0291428
-0.0319099
-0.0354416
-0.0395486
-0.0438541
-0.0477838
-0.0505791
-0.0513763
-0.0491626
-0.0433932
-0.0339881
-0.0219769
-0.00980522
-0.00102409
0.0002807
-0.00599935
-0.0302219
-0.0315855
-0.0326689
-0.0337913
-0.0356674
-0.0385791
-0.0425682
-0.0474542
-0.0528335
-0.0580618
-0.0622502
-0.0643098
-0.0630215
-0.0573312
-0.0466921
-0.0317042
-0.0148004
-0.000416409
0.00496625
2.34403e-05
-0.0385593
-0.0394887
-0.0399605
-0.0403262
-0.0416342
-0.0443088
-0.0484448
-0.0538585
-0.0601051
-0.0664646
-0.0719286
-0.0752207
-0.0748696
-0.0694206
-0.0578063
-0.0400014
-0.0180226
0.00328018
0.0146992
0.0135563
-0.0481741
-0.0481563
-0.0474028
-0.0462834
-0.0464114
-0.0483705
-0.0522807
-0.0579124
-0.0647386
-0.0719346
-0.0783598
-0.0825605
-0.0828315
-0.0773731
-0.0646446
-0.0439363
-0.0165428
0.0130195
0.0329317
0.0392813
-0.0602343
-0.057957
-0.0548665
-0.0512128
-0.0494265
-0.0501777
-0.0535196
-0.0590929
-0.0662193
-0.073918
-0.0808787
-0.0854527
-0.0857063
-0.0795192
-0.0649413
-0.0406107
-0.00697831
0.0328174
0.0647943
0.0836773
-0.0774808
-0.0694726
-0.0620868
-0.0545488
-0.0501384
-0.0493245
-0.0519038
-0.0572603
-0.0644855
-0.0723842
-0.0794392
-0.0837777
-0.0832178
-0.0752824
-0.0576209
-0.0282108
0.0133529
0.0666615
0.115753
0.154808
-0.108925
-0.0850395
-0.0697728
-0.056391
-0.0485405
-0.0458806
-0.0476236
-0.0527144
-0.0599165
-0.0677763
-0.0745517
-0.0781394
-0.0761038
-0.065542
-0.0436427
-0.0074446
0.0447436
0.114933
0.188079
0.263281
-0.168693
-0.100745
-0.0730926
-0.0522877
-0.0413097
-0.0376992
-0.0394414
-0.0448648
-0.0524151
-0.0604463
-0.0670733
-0.0700472
-0.0666869
-0.0537878
-0.0278893
0.0154104
0.080072
0.17276
0.285855
0.445986
-0.402754
-0.13903
-0.0734586
-0.0447297
-0.0305713
-0.026617
-0.029085
-0.0353729
-0.0436534
-0.0522067
-0.0591234
-0.0621449
-0.0586169
-0.0452135
-0.0174503
0.0310791
0.108496
0.236657
0.427488
0.79368
)
;

boundaryField
{
    movingWall
    {
        type            zeroGradient;
    }
    fixedWalls
    {
        type            zeroGradient;
    }
    frontAndBack
    {
        type            empty;
    }
}


// ************************************************************************* //
