/*--------------------------------*- C++ -*----------------------------------*\
  =========                 |
  \\      /  F ield         | OpenFOAM: The Open Source CFD Toolbox
   \\    /   O peration     | Website:  https://openfoam.org
    \\  /    A nd           | Version:  13
     \\/     M anipulation  |
\*---------------------------------------------------------------------------*/
FoamFile
{
    format      ascii;
    class       surfaceScalarField;
    location    "28";
    object      phi;
}
// * * * * * * * * * * * * * * * * * * * * * * * * * * * * * * * * * * * * * //

dimensions      [0 3 -1 0 0 0 0];

internalField   nonuniform List<scalar> 
760
(
4.39407e-06
-4.40007e-06
-3.89742e-05
4.33683e-05
-0.000131157
9.21832e-05
-0.000256589
0.000125432
-0.000399492
0.000142903
-0.000546409
0.000146917
-0.0006854
0.000138991
-0.000804699
0.000119299
-0.000892147
8.74477e-05
-0.000935895
4.37484e-05
-0.00092624
-9.65497e-06
-0.000858566
-6.76746e-05
-0.000735931
-0.000122635
-0.000571086
-0.000164844
-0.000386252
-0.000184834
-0.000210072
-0.00017618
-7.16527e-05
-0.000138419
7.53043e-06
-7.91832e-05
2.35969e-05
-1.60666e-05
2.35968e-05
-4.70771e-05
4.2677e-05
-0.000210003
0.000206294
-0.000473793
0.000355973
-0.000806026
0.000457665
-0.00117279
0.000509667
-0.00154262
0.000516745
-0.00188602
0.000482389
-0.00217411
0.000407396
-0.0023786
0.000291934
-0.00247377
0.000138925
-0.00244068
-4.27531e-05
-0.00227173
-0.000236616
-0.00197639
-0.00041798
-0.00158359
-0.000557647
-0.00114111
-0.000627312
-0.000709512
-0.000607777
-0.000350412
-0.000497519
-0.000110603
-0.000318992
-5.66873e-06
-0.000121001
1.7928e-05
-0.000111453
0.00015413
-0.000405325
0.000500166
-0.000834758
0.000785407
-0.00135039
0.000973293
-0.00190531
0.00106459
-0.00245607
0.0010675
-0.00296137
0.000987687
-0.00338094
0.000826962
-0.0036761
0.000587094
-0.00381267
0.000275502
-0.00376592
-8.95061e-05
-0.00352641
-0.000476129
-0.00310599
-0.000838399
-0.0025416
-0.00112204
-0.00189516
-0.00127375
-0.00124729
-0.00125564
-0.000683476
-0.00106133
-0.000273875
-0.000728593
-5.21075e-05
-0.000342768
-3.41796e-05
-0.000173176
0.000327306
-0.000593716
0.000920705
-0.00117948
0.00137117
-0.00186214
0.00165595
-0.00258344
0.00178589
-0.0032916
0.00177566
-0.00393801
0.0016341
-0.00447544
0.00136439
-0.00485852
0.000970181
-0.00504677
0.000463748
-0.00500952
-0.000126758
-0.00473213
-0.000753521
-0.00422297
-0.00134755
-0.0035192
-0.00182581
-0.00268946
-0.00210349
-0.00183013
-0.00211498
-0.00105163
-0.00183983
-0.00045458
-0.00132565
-0.00010196
-0.000695389
-0.000136139
-0.000228305
0.000555612
-0.00076371
0.00145611
-0.00149121
0.00209867
-0.00232416
0.00248891
-0.00319459
0.00265632
-0.00404524
0.00262631
-0.00482366
0.00241253
-0.00547902
0.00201974
-0.00596165
0.00145281
-0.00622527
0.000727372
-0.00623142
-0.000120615
-0.00595537
-0.00102956
-0.00539489
-0.00190804
-0.00457898
-0.00264172
-0.00357588
-0.00310659
-0.00249491
-0.00319594
-0.0014758
-0.00285894
-0.00066097
-0.00214047
-0.000156597
-0.00119976
-0.000292736
-0.000274792
0.000830404
-0.000908231
0.00208955
-0.00175767
0.00294811
-0.0027209
0.00345213
-0.00372249
0.00365791
-0.00470239
0.00360621
-0.00560733
0.00331747
-0.00638571
0.00279812
-0.00698554
0.00205264
-0.00735501
0.00109684
-0.00744601
-2.96149e-05
-0.00721874
-0.00125684
-0.00665304
-0.00247373
-0.00576027
-0.00353449
-0.00459877
-0.00426809
-0.0032851
-0.00450962
-0.00199096
-0.00415308
-0.000914137
-0.0032173
-0.000223259
-0.00189064
-0.000515996
-0.000310713
0.00114112
-0.00102089
0.00279973
-0.00196695
0.00389416
-0.00303493
0.00452012
-0.00414471
0.00476769
-0.00523605
0.00469755
-0.00625773
0.00433915
-0.00716023
0.00370062
-0.00789161
0.00278402
-0.00839598
0.00160121
-0.00861413
0.000188538
-0.00848988
-0.00138109
-0.00797783
-0.00298578
-0.00706152
-0.0044508
-0.00577623
-0.00555339
-0.00423341
-0.00605244
-0.00263279
-0.00575369
-0.00123952
-0.00461057
-0.000311405
-0.00281876
-0.000827401
-0.000334154
0.00147527
-0.00109554
0.00356112
-0.00210699
0.0049056
-0.00324692
0.00566004
-0.00443318
0.00595396
-0.00560787
0.00587224
-0.00672455
0.00545583
-0.00773895
0.00471502
-0.0086025
0.00364758
-0.00925836
0.00225706
-0.00963969
0.000569872
-0.0096726
-0.00134818
-0.00928431
-0.00337408
-0.00842123
-0.00531388
-0.00707921
-0.0068954
-0.00534357
-0.00778808
-0.00342561
-0.00767165
-0.0016617
-0.00637448
-0.00043158
-0.00404888
-0.00125898
-0.000343865
0.00181914
-0.00112767
0.00434492
-0.00216777
0.0059457
-0.00333856
0.00683084
-0.00455826
0.00717366
-0.00577344
0.00708741
-0.00694513
0.00662752
-0.00803777
0.00580766
-0.0090107
0.00462051
-0.0098116
0.00305797
-0.0103719
0.0011302
-0.0106057
-0.0011144
-0.0104147
-0.00356508
-0.00970328
-0.0060253
-0.00841167
-0.00818702
-0.00657029
-0.00962946
-0.00436862
-0.00987332
-0.00219924
-0.00854385
-0.000595132
-0.00565298
-0.00185411
-0.000340398
0.00215953
-0.00111711
0.00512164
-0.00214539
0.00697398
-0.00329821
0.00798366
-0.00449604
0.00837149
-0.00569192
0.00828329
-0.00685686
0.00779246
-0.00796762
0.00691842
-0.00899665
0.00564955
-0.00990353
0.00396484
-0.0106273
0.00185396
-0.01108
-0.000661728
-0.0111478
-0.00349719
-0.0106958
-0.0064773
-0.00959829
-0.00928457
-0.0078001
-0.0114277
-0.00541865
-0.0122548
-0.00285705
-0.0111055
-0.000813803
-0.00769623
-0.00266792
-0.000327668
0.0024872
-0.00107161
0.00586558
-0.00204752
0.00794988
-0.00312809
0.00906423
-0.004238
0.0094814
-0.00533893
0.00938423
-0.00641444
0.00886797
-0.00745703
0.00796101
-0.00845739
0.0066499
-0.00939457
0.00490203
-0.0102266
0.00268601
-0.0108749
-1.34983e-05
-0.0112316
-0.00314044
-0.0111328
-0.00657608
-0.0103901
-0.0100274
-0.00884067
-0.012977
-0.00647169
-0.0146238
-0.00361423
-0.0139629
-0.00109821
-0.0102123
-0.00376612
-0.000315006
0.00280221
-0.00101102
0.00656159
-0.00189905
0.00883792
-0.0028514
0.0100166
-0.0038
0.01043
-0.00471868
0.0103029
-0.00560656
0.00975585
-0.00647482
0.00882926
-0.00733608
0.00751116
-0.00819482
0.00576076
-0.00903625
0.00352744
-0.00981819
0.000768435
-0.0104385
-0.00252012
-0.0107416
-0.00627299
-0.0104956
-0.0102733
-0.00942919
-0.0140435
-0.0073503
-0.0167026
-0.00440755
-0.0169057
-0.00145377
-0.013166
-0.0052199
-0.000320152
0.00312236
-0.000972023
0.00721346
-0.00174703
0.00961292
-0.00251683
0.0107864
-0.0032271
0.0111403
-0.00387019
0.010946
-0.00446522
0.0103509
-0.00504463
0.00940867
-0.00564489
0.00811143
-0.00629847
0.00641435
-0.00702457
0.00425355
-0.0078166
0.00156046
-0.00861885
-0.00171788
-0.00930326
-0.00558858
-0.00963536
-0.00994121
-0.00926554
-0.0144133
-0.00780701
-0.0181612
-0.00511449
-0.0195982
-0.00187244
-0.0164081
-0.00709234
-0.000374071
0.00349643
-0.00101323
0.00785263
-0.00166245
0.0102621
-0.00219633
0.0113203
-0.00258766
0.0115316
-0.00285862
0.011217
-0.00305483
0.0105471
-0.00323234
0.00958618
-0.00345095
0.00833004
-0.00376947
0.00673287
-0.00423982
0.0047239
-0.00489722
0.00221786
-0.00574098
-0.000874119
-0.00670348
-0.00462608
-0.00759857
-0.00904613
-0.0080616
-0.0139503
-0.00754675
-0.018676
-0.00554237
-0.0216026
-0.00231876
-0.0196317
-0.00941109
-0.000529448
0.00402588
-0.00121872
0.00854189
-0.00173229
0.0107757
-0.00196517
0.0115532
-0.00194332
0.0115098
-0.00173665
0.0110103
-0.00142607
0.0102365
-0.00109333
0.00925344
-0.000819212
0.00805592
-0.000683749
0.00659741
-0.000765262
0.00480541
-0.00113632
0.00258892
-0.00185251
-0.000157927
-0.00292497
-0.00355362
-0.00426455
-0.00770655
-0.00557759
-0.0126372
-0.00625524
-0.0179984
-0.00542587
-0.0224319
-0.00270917
-0.0223484
-0.0121203
-0.000868735
0.00489461
-0.00168415
0.00935731
-0.00201351
0.0111051
-0.00182739
0.011367
-0.00125255
0.0109349
-0.000432114
0.0101898
0.000508199
0.0092962
0.00146081
0.00830084
0.00232849
0.00718823
0.00301741
0.00590849
0.00343194
0.00439089
0.00347253
0.00254832
0.00303759
0.000277009
0.00203947
-0.00255549
0.00044414
-0.00611122
-0.00160997
-0.0105831
-0.00360094
-0.0160074
-0.00441535
-0.0216175
-0.00288084
-0.0238829
-0.0150011
-0.00149474
0.00638936
-0.00241123
0.0102738
-0.00233096
0.0110248
-0.00145106
0.0104871
-7.61602e-05
0.00956001
0.00155326
0.00856042
0.00326668
0.00758278
0.00493956
0.00662795
0.00647015
0.00565765
0.00776292
0.00461572
0.00871776
0.00343605
0.0092226
0.00204348
0.00914726
0.000352351
0.00834963
-0.00175786
0.00668349
-0.00444508
0.00408871
-0.00798833
0.000840752
-0.0127594
-0.00200516
-0.0187716
-0.00250291
-0.0233852
-0.017504
-0.00234101
0.00873036
-0.0028199
0.0107527
-0.0015854
0.00979029
0.000573861
0.00832788
0.00312129
0.00701259
0.00575793
0.00592378
0.0083175
0.00502321
0.0106989
0.00424652
0.0128262
0.00353041
0.0146252
0.00281669
0.0160107
0.00205052
0.016877
0.00117721
0.0170878
0.000141506
0.0164809
-0.00115096
0.0148419
-0.00280603
0.0119354
-0.00508186
0.0076498
-0.00847381
0.002612
-0.0137338
-0.000908528
-0.0198646
-0.0184125
-0.00200263
0.010733
0.000357661
0.0083924
0.00431899
0.00582896
0.00833387
0.00431301
0.0120918
0.00325468
0.0154941
0.00252149
0.0185181
0.00199916
0.0211646
0.00160008
0.0234282
0.0012668
0.0252852
0.000959615
0.0266875
0.000648204
0.0275563
0.000308417
0.0277823
-8.44271e-05
0.0272132
-0.000581873
0.0256275
-0.00122032
0.0226957
-0.0021501
0.0179511
-0.00372918
0.01095
-0.00673275
0.00302462
-0.0119392
-0.0153879
0.010733
0.0191254
0.0249544
0.0292674
0.032522
0.0350435
0.0370427
0.0386428
0.0399096
0.0408692
0.0415174
0.0418258
0.0417414
0.0411595
0.0399392
0.0377891
0.0340599
0.0273272
0.0153879
)
;

boundaryField
{
    movingWall
    {
        type            calculated;
        value           uniform 0;
    }
    fixedWalls
    {
        type            calculated;
        value           uniform 0;
    }
    frontAndBack
    {
        type            empty;
    }
}


// ************************************************************************* //
