/*--------------------------------*- C++ -*----------------------------------*\
  =========                 |
  \\      /  F ield         | OpenFOAM: The Open Source CFD Toolbox
   \\    /   O peration     | Website:  https://openfoam.org
    \\  /    A nd           | Version:  13
     \\/     M anipulation  |
\*---------------------------------------------------------------------------*/
FoamFile
{
    format      ascii;
    class       volVectorField;
    location    "28";
    object      U;
}
// * * * * * * * * * * * * * * * * * * * * * * * * * * * * * * * * * * * * * //

dimensions      [0 1 -1 0 0 0 0];

internalField   nonuniform List<vector> 
400
(
(0.000213617 -0.000214053 0)
(-9.35717e-05 -1.49623e-05 0)
(-0.00151402 0.00020232 0)
(-0.00376291 0.000340565 0)
(-0.00651405 0.000413238 0)
(-0.00947201 0.000441476 0)
(-0.0123872 0.000435807 0)
(-0.0150265 0.000395728 0)
(-0.0171501 0.000314733 0)
(-0.0185117 0.000187271 0)
(-0.0188851 1.56941e-05 0)
(-0.0181145 -0.000186997 0)
(-0.0161741 -0.000388847 0)
(-0.0132183 -0.000547976 0)
(-0.00960423 -0.000620159 0)
(-0.00586039 -0.000573159 0)
(-0.0025952 -0.000400828 0)
(-0.000343887 -0.000134397 0)
(0.00058622 0.000143809 0)
(0.00032028 0.000307109 0)
(2.37689e-06 9.09766e-05 0)
(-0.00201784 0.00187326 0)
(-0.00641681 0.00366746 0)
(-0.0125495 0.0049069 0)
(-0.019701 0.00556132 0)
(-0.0272166 0.00570094 0)
(-0.0344924 0.00537604 0)
(-0.0409484 0.00459418 0)
(-0.0460078 0.0033466 0)
(-0.049115 0.00165304 0)
(-0.0498013 -0.000394578 0)
(-0.0477766 -0.00260594 0)
(-0.0430402 -0.00468788 0)
(-0.035971 -0.00628341 0)
(-0.0273515 -0.00704555 0)
(-0.0183064 -0.00674126 0)
(-0.0101238 -0.00535779 0)
(-0.00396724 -0.00318008 0)
(-0.000522391 -0.000840556 0)
(0.000244881 0.000614973 0)
(-0.000277829 0.00168047 0)
(-0.00439047 0.00643589 0)
(-0.0118376 0.0106171 0)
(-0.0215426 0.0134429 0)
(-0.0324743 0.0148701 0)
(-0.0437425 0.0150163 0)
(-0.0545067 0.0139694 0)
(-0.0639529 0.0117532 0)
(-0.0712825 0.00838317 0)
(-0.075747 0.00395589 0)
(-0.0767304 -0.00126693 0)
(-0.073862 -0.00680845 0)
(-0.0671424 -0.0119853 0)
(-0.0570505 -0.015984 0)
(-0.0445879 -0.0180194 0)
(-0.0312259 -0.0175551 0)
(-0.0187078 -0.0145411 0)
(-0.00869273 -0.00958933 0)
(-0.00231744 -0.00402872 0)
(8.96285e-05 6.81361e-05 0)
(-0.000532279 0.00454879 0)
(-0.00668698 0.013627 0)
(-0.0170638 0.0208394 0)
(-0.0300824 0.0255196 0)
(-0.0443971 0.0277407 0)
(-0.0589434 0.0277115 0)
(-0.0727302 0.02557 0)
(-0.0848015 0.0213644 0)
(-0.0942217 0.0151496 0)
(-0.100112 0.00712453 0)
(-0.101734 -0.00224408 0)
(-0.0986023 -0.0121513 0)
(-0.0906251 -0.0214582 0)
(-0.0782365 -0.0288065 0)
(-0.0624931 -0.0328511 0)
(-0.0450817 -0.0326113 0)
(-0.0281595 -0.0278784 0)
(-0.0139633 -0.0195456 0)
(-0.00428212 -0.00969308 0)
(-3.65309e-05 -0.00145195 0)
(-0.000750731 0.00859803 0)
(-0.00874855 0.0232566 0)
(-0.0217911 0.0340573 0)
(-0.0378044 0.0407656 0)
(-0.0551506 0.043742 0)
(-0.0726367 0.0433645 0)
(-0.0891878 0.0398485 0)
(-0.103778 0.0332733 0)
(-0.115398 0.0237297 0)
(-0.12307 0.011508 0)
(-0.125922 -0.00273747 0)
(-0.123289 -0.0178884 0)
(-0.114859 -0.0323412 0)
(-0.100861 -0.0441311 0)
(-0.082237 -0.0512113 0)
(-0.0607743 -0.0519354 0)
(-0.0390491 -0.0456887 0)
(-0.0200412 -0.0334753 0)
(-0.00648015 -0.018127 0)
(-0.000142565 -0.0039951 0)
(-0.000930528 0.0136723 0)
(-0.0104903 0.0350362 0)
(-0.0258196 0.0499355 0)
(-0.0444177 0.058836 0)
(-0.0644033 0.0625574 0)
(-0.0845025 0.0617383 0)
(-0.103615 0.0567096 0)
(-0.120709 0.0475837 0)
(-0.134749 0.0344638 0)
(-0.144688 0.0176828 0)
(-0.149506 -0.00198576 0)
(-0.148289 -0.0231685 0)
(-0.140384 -0.0438475 0)
(-0.125638 -0.0614111 0)
(-0.104677 -0.072946 0)
(-0.0792154 -0.0758282 0)
(-0.0521956 -0.0686317 0)
(-0.0275017 -0.0521361 0)
(-0.00917946 -0.0298684 0)
(-0.000263178 -0.00771377 0)
(-0.00106576 0.0195793 0)
(-0.0118376 0.0485836 0)
(-0.0289681 0.0680255 0)
(-0.0496266 0.0792858 0)
(-0.0717538 0.0837969 0)
(-0.0940444 0.0825515 0)
(-0.115428 0.0760377 0)
(-0.134924 0.064401 0)
(-0.151531 0.0477178 0)
(-0.164169 0.0262874 0)
(-0.171674 0.000895346 0)
(-0.17286 -0.0269629 0)
(-0.166651 -0.0549438 0)
(-0.152335 -0.0798085 0)
(-0.129982 -0.097635 0)
(-0.100952 -0.104451 0)
(-0.0683496 -0.0974364 0)
(-0.0370096 -0.0765471 0)
(-0.0127327 -0.0457722 0)
(-0.000442767 -0.0129367 0)
(-0.00114885 0.0260872 0)
(-0.0127188 0.0634288 0)
(-0.0310617 0.0877625 0)
(-0.0531235 0.101539 0)
(-0.0767349 0.106929 0)
(-0.100606 0.10537 0)
(-0.123748 0.0975512 0)
(-0.145292 0.0836553 0)
(-0.164333 0.0636887 0)
(-0.179829 0.037827 0)
(-0.190541 0.00673232 0)
(-0.195035 -0.0281566 0)
(-0.191789 -0.0643328 0)
(-0.179429 -0.0980498 0)
(-0.157213 -0.12433 0)
(-0.125753 -0.137509 0)
(-0.0878762 -0.132635 0)
(-0.0491539 -0.107867 0)
(-0.0175294 -0.0670141 0)
(-0.000736535 -0.020197 0)
(-0.00117555 0.0329292 0)
(-0.0130869 0.0790211 0)
(-0.0319676 0.108463 0)
(-0.054639 0.124858 0)
(-0.0788827 0.131217 0)
(-0.103464 0.129501 0)
(-0.127521 0.120659 0)
(-0.150358 0.104922 0)
(-0.171245 0.0821973 0)
(-0.189279 0.0524523 0)
(-0.203263 0.0160833 0)
(-0.211642 -0.0257182 0)
(-0.212531 -0.070536 0)
(-0.203889 -0.114371 0)
(-0.183966 -0.151328 0)
(-0.152177 -0.173868 0)
(-0.110386 -0.174142 0)
(-0.0642611 -0.147109 0)
(-0.0239722 -0.0950122 0)
(-0.00122034 -0.0302497 0)
(-0.00115257 0.0398255 0)
(-0.0129584 0.0947623 0)
(-0.0316628 0.129343 0)
(-0.0540388 0.14834 0)
(-0.0778641 0.155677 0)
(-0.101994 0.153925 0)
(-0.125737 0.144355 0)
(-0.148626 0.127283 0)
(-0.170197 0.102511 0)
(-0.189806 0.0697504 0)
(-0.20647 0.0290141 0)
(-0.218707 -0.0189547 0)
(-0.224492 -0.0721153 0)
(-0.221268 -0.126632 0)
(-0.206234 -0.176088 0)
(-0.177229 -0.211218 0)
(-0.134323 -0.220727 0)
(-0.0821217 -0.194669 0)
(-0.0324335 -0.131236 0)
(-0.00200758 -0.0440874 0)
(-0.00110789 0.0465339 0)
(-0.0124662 0.110075 0)
(-0.0303249 0.149573 0)
(-0.0514475 0.170938 0)
(-0.0736408 0.179085 0)
(-0.0958909 0.177279 0)
(-0.117723 0.167186 0)
(-0.138955 0.149267 0)
(-0.159469 0.123255 0)
(-0.179007 0.0886018 0)
(-0.196983 0.0448898 0)
(-0.212217 -0.00772574 0)
(-0.222892 -0.0680143 0)
(-0.226271 -0.132663 0)
(-0.218693 -0.195428 0)
(-0.196297 -0.245951 0)
(-0.156607 -0.269504 0)
(-0.10161 -0.249652 0)
(-0.0431493 -0.176837 0)
(-0.00327178 -0.0629403 0)
(-0.00110591 0.0529346 0)
(-0.0119264 0.124516 0)
(-0.0284317 0.168365 0)
(-0.0473761 0.191533 0)
(-0.0666269 0.200032 0)
(-0.0853752 0.197911 0)
(-0.103427 0.187315 0)
(-0.120945 0.168916 0)
(-0.138214 0.142441 0)
(-0.155449 0.107134 0)
(-0.172594 0.0621544 0)
(-0.189149 0.00698731 0)
(-0.203736 -0.0580745 0)
(-0.213827 -0.130843 0)
(-0.215539 -0.206078 0)
(-0.203582 -0.273457 0)
(-0.172567 -0.315701 0)
(-0.120279 -0.309133 0)
(-0.0559915 -0.232032 0)
(-0.00526763 -0.0882263 0)
(-0.00127371 0.0591642 0)
(-0.0119276 0.137929 0)
(-0.0268615 0.18509 0)
(-0.0428147 0.209011 0)
(-0.0577771 0.217 0)
(-0.0712948 0.213996 0)
(-0.0835651 0.202674 0)
(-0.0951605 0.183974 0)
(-0.106811 0.157685 0)
(-0.119242 0.122927 0)
(-0.133012 0.0785195 0)
(-0.148323 0.0233164 0)
(-0.164646 -0.0432945 0)
(-0.180267 -0.120716 0)
(-0.19169 -0.20552 0)
(-0.193024 -0.288913 0)
(-0.176329 -0.352961 0)
(-0.134117 -0.367624 0)
(-0.0700811 -0.295233 0)
(-0.00832736 -0.121382 0)
(-0.00184961 0.0658224 0)
(-0.0134578 0.150626 0)
(-0.0269706 0.199365 0)
(-0.0392287 0.222308 0)
(-0.0485021 0.228427 0)
(-0.0549769 0.223633 0)
(-0.0594212 0.211132 0)
(-0.0629006 0.192127 0)
(-0.0666004 0.166503 0)
(-0.0717278 0.133342 0)
(-0.0794177 0.0912614 0)
(-0.0905977 0.0386657 0)
(-0.105709 -0.0259474 0)
(-0.124238 -0.103483 0)
(-0.143909 -0.192901 0)
(-0.159453 -0.288465 0)
(-0.161628 -0.374332 0)
(-0.137664 -0.417157 0)
(-0.0832645 -0.362086 0)
(-0.0127832 -0.163496 0)
(-0.00328654 0.0743328 0)
(-0.0180827 0.163586 0)
(-0.0305595 0.211083 0)
(-0.0382766 0.230372 0)
(-0.0401622 0.232671 0)
(-0.0375361 0.224875 0)
(-0.0319961 0.21059 0)
(-0.0251979 0.191169 0)
(-0.0187694 0.166549 0)
(-0.0143168 0.135813 0)
(-0.0134302 0.0975022 0)
(-0.0176446 0.0497973 0)
(-0.028307 -0.00935202 0)
(-0.0462297 -0.0820394 0)
(-0.0709737 -0.169596 0)
(-0.099236 -0.270382 0)
(-0.122588 -0.373685 0)
(-0.124374 -0.448105 0)
(-0.0915502 -0.424659 0)
(-0.0187138 -0.214586 0)
(-0.00636396 0.0873956 0)
(-0.0280123 0.178258 0)
(-0.0392816 0.219868 0)
(-0.0405781 0.23159 0)
(-0.0323254 0.227562 0)
(-0.0177614 0.215418 0)
(0.000375128 0.198796 0)
(0.0197636 0.178928 0)
(0.0383898 0.15567 0)
(0.0543762 0.128075 0)
(0.0658497 0.0947009 0)
(0.070876 0.0537248 0)
(0.0674212 0.00295878 0)
(0.0535274 -0.0602719 0)
(0.0276639 -0.138977 0)
(-0.00977128 -0.235631 0)
(-0.0537663 -0.347024 0)
(-0.086616 -0.450324 0)
(-0.0885201 -0.470851 0)
(-0.0253076 -0.272265 0)
(-0.0125247 0.110609 0)
(-0.0452198 0.196707 0)
(-0.051452 0.224539 0)
(-0.0408733 0.22312 0)
(-0.0170344 0.209832 0)
(0.0139333 0.192196 0)
(0.0480204 0.173108 0)
(0.0823851 0.153192 0)
(0.114853 0.13197 0)
(0.143516 0.108393 0)
(0.166461 0.0810822 0)
(0.18162 0.0483823 0)
(0.18657 0.00832024 0)
(0.178643 -0.0416952 0)
(0.154759 -0.105195 0)
(0.112463 -0.187488 0)
(0.051204 -0.293356 0)
(-0.014315 -0.414488 0)
(-0.0643337 -0.485122 0)
(-0.0295905 -0.330461 0)
(-0.0216115 0.148418 0)
(-0.0652288 0.213122 0)
(-0.0493935 0.215068 0)
(-0.0130312 0.19509 0)
(0.0358886 0.171614 0)
(0.0887361 0.149603 0)
(0.141277 0.129846 0)
(0.191066 0.111755 0)
(0.236471 0.0943079 0)
(0.276072 0.0763375 0)
(0.308328 0.0566067 0)
(0.331398 0.0337854 0)
(0.342844 0.00634673 0)
(0.339858 -0.0276628 0)
(0.318525 -0.071237 0)
(0.274661 -0.130266 0)
(0.202174 -0.214989 0)
(0.107943 -0.334974 0)
(-0.00320466 -0.451463 0)
(-0.0232652 -0.378735 0)
(-0.0274723 0.229336 0)
(-0.0364933 0.22312 0)
(0.0465603 0.176951 0)
(0.127046 0.138742 0)
(0.205601 0.109501 0)
(0.277488 0.0878765 0)
(0.34179 0.0715786 0)
(0.398484 0.0585822 0)
(0.447621 0.0473869 0)
(0.488959 0.0368461 0)
(0.521799 0.0260103 0)
(0.544927 0.0140228 0)
(0.5564 5.10519e-06 0)
(0.55389 -0.0170372 0)
(0.533366 -0.0390883 0)
(0.490589 -0.0704559 0)
(0.415322 -0.120934 0)
(0.304905 -0.213375 0)
(0.125881 -0.348318 0)
(0.0236681 -0.37879 0)
(0.21444 0.135797 0)
(0.285137 0.0984496 0)
(0.444655 0.0569152 0)
(0.547913 0.036584 0)
(0.621662 0.0241692 0)
(0.678249 0.0163208 0)
(0.722824 0.011336 0)
(0.758414 0.00800683 0)
(0.786855 0.00557321 0)
(0.809038 0.00357109 0)
(0.82515 0.00169392 0)
(0.834864 -0.000271541 0)
(0.837314 -0.00250681 0)
(0.831191 -0.00505124 0)
(0.813548 -0.00850248 0)
(0.781941 -0.0135056 0)
(0.72408 -0.0231768 0)
(0.635276 -0.0406015 0)
(0.43131 -0.0912947 0)
(0.270899 -0.153523 0)
)
;

boundaryField
{
    movingWall
    {
        type            fixedValue;
        value           uniform (1 0 0);
    }
    fixedWalls
    {
        type            fixedValue;
        value           uniform (0 0 0);
    }
    frontAndBack
    {
        type            empty;
    }
}


// ************************************************************************* //
