/*--------------------------------*- C++ -*----------------------------------*\
  =========                 |
  \\      /  F ield         | OpenFOAM: The Open Source CFD Toolbox
   \\    /   O peration     | Website:  https://openfoam.org
    \\  /    A nd           | Version:  13
     \\/     M anipulation  |
\*---------------------------------------------------------------------------*/
FoamFile
{
    format      ascii;
    class       volScalarField;
    location    "23";
    object      p;
}
// * * * * * * * * * * * * * * * * * * * * * * * * * * * * * * * * * * * * * //

dimensions      [0 2 -2 0 0 0 0];

internalField   nonuniform List<scalar> 
400
(
1.08632e-06
-0.000571275
-0.00121482
-0.00171765
-0.00195792
-0.00188332
-0.00146906
-0.000704092
0.000402721
0.00180737
0.00341609
0.0050764
0.00659242
0.00775247
0.00838118
0.00839706
0.00785685
0.0069705
0.00604968
0.00549604
0.000571017
-1.91953e-05
-0.000568502
-0.000955831
-0.00113079
-0.0010607
-0.00072462
-0.00010783
0.000790201
0.00194087
0.0032712
0.00466153
0.00594211
0.00693124
0.0074757
0.00750329
0.00706076
0.00632043
0.0055449
0.00497433
0.00124671
0.000494015
-8.56036e-05
-0.00044018
-0.000604933
-0.00057504
-0.000335965
0.000133978
0.000851137
0.00180836
0.00295632
0.00419326
0.0053659
0.0062953
0.00682077
0.00685447
0.00642238
0.00566985
0.00481062
0.00403891
0.00174158
0.000764697
7.47198e-05
-0.000320797
-0.000535903
-0.000591462
-0.000476898
-0.000158746
0.000401517
0.00122363
0.00228325
0.00349444
0.00470327
0.00571129
0.00632097
0.00639978
0.0059352
0.00505231
0.00395018
0.00284624
0.00179645
0.000596758
-0.000226639
-0.000703693
-0.00101691
-0.0012059
-0.00125794
-0.00112148
-0.000728887
-2.61448e-05
0.000993477
0.00226534
0.00363179
0.00486296
0.00570038
0.00593404
0.00548216
0.00443731
0.00300181
0.00146401
0.00119569
-0.000201935
-0.00116215
-0.00175151
-0.00221011
-0.00258923
-0.00286768
-0.00296949
-0.0027901
-0.00223101
-0.0012421
0.000152498
0.00179481
0.00342175
0.0046921
0.00527658
0.00497377
0.00380759
0.00198099
-0.000102005
-0.000240585
-0.00179893
-0.002891
-0.00362089
-0.00427626
-0.00491502
-0.00550327
-0.00593555
-0.00606242
-0.00572619
-0.0048046
-0.00328286
-0.00126807
0.000948887
0.0029284
0.00417191
0.00428127
0.00313758
0.000904705
-0.00185408
-0.00265076
-0.00432506
-0.00553985
-0.00643777
-0.00734545
-0.00832587
-0.00933179
-0.0102264
-0.0108087
-0.0108478
-0.0101308
-0.00853625
-0.00610438
-0.0031097
-8.40094e-05
0.00225733
0.00321485
0.00239745
-0.000175154
-0.00375065
-0.00611994
-0.00786023
-0.00918314
-0.0102701
-0.0114811
-0.0128872
-0.014432
-0.0159502
-0.0171867
-0.0178245
-0.0175321
-0.0160395
-0.0132499
-0.00935452
-0.00493324
-0.000938833
0.00151049
0.0015569
-0.00113482
-0.00564438
-0.0106698
-0.0124219
-0.0138257
-0.0151001
-0.01664
-0.0185333
-0.0207244
-0.0230274
-0.0251371
-0.0266456
-0.0270804
-0.0259739
-0.0230306
-0.0182507
-0.0121646
-0.00591925
-0.00113964
0.000605506
-0.00172895
-0.00719265
-0.0162585
-0.0179634
-0.0193937
-0.020804
-0.0226391
-0.0250206
-0.0279082
-0.0311081
-0.0342738
-0.0369099
-0.0383912
-0.0380025
-0.0352801
-0.0298298
-0.0220017
-0.0130033
-0.00495696
-0.00037295
-0.00151352
-0.00771814
-0.0228007
-0.0243878
-0.0257404
-0.027146
-0.0291409
-0.0319077
-0.0354391
-0.0395458
-0.043851
-0.0477805
-0.0505757
-0.0513731
-0.0491593
-0.0433901
-0.0339853
-0.0219744
-0.00980297
-0.00102209
0.000282562
-0.00599752
-0.0302201
-0.0315838
-0.0326672
-0.0337895
-0.0356654
-0.0385769
-0.0425656
-0.0474513
-0.0528303
-0.0580585
-0.0622468
-0.0643064
-0.0630183
-0.0573283
-0.0466894
-0.0317018
-0.0147982
-0.000414461
0.00496803
2.51342e-05
-0.0385574
-0.0394869
-0.0399587
-0.0403244
-0.0416323
-0.0443066
-0.0484423
-0.0538557
-0.060102
-0.0664614
-0.0719254
-0.0752176
-0.0748667
-0.069418
-0.057804
-0.0399993
-0.0180207
0.0032819
0.0147008
0.0135578
-0.0481721
-0.0481545
-0.047401
-0.0462817
-0.0464095
-0.0483684
-0.0522784
-0.0579097
-0.0647357
-0.0719316
-0.0783569
-0.0825577
-0.082829
-0.077371
-0.0646428
-0.0439348
-0.0165414
0.0130208
0.0329329
0.0392824
-0.0602324
-0.0579553
-0.0548649
-0.0512112
-0.0494249
-0.0501759
-0.0535175
-0.0590906
-0.0662167
-0.0739153
-0.080876
-0.0854503
-0.0857042
-0.0795175
-0.06494
-0.0406097
-0.00697745
0.0328182
0.0647951
0.0836781
-0.0774791
-0.069471
-0.0620855
-0.0545476
-0.0501371
-0.049323
-0.051902
-0.0572582
-0.0644831
-0.0723818
-0.0794369
-0.0837755
-0.083216
-0.075281
-0.0576199
-0.0282102
0.0133533
0.0666618
0.115753
0.154808
-0.108924
-0.0850382
-0.0697718
-0.0563901
-0.0485396
-0.0458794
-0.0476222
-0.0527125
-0.0599144
-0.0677741
-0.0745495
-0.0781374
-0.0761022
-0.0655409
-0.043642
-0.00744429
0.0447437
0.114933
0.188079
0.263281
-0.168692
-0.100744
-0.0730918
-0.052287
-0.041309
-0.0376983
-0.0394402
-0.0448632
-0.0524132
-0.0604442
-0.0670712
-0.0700454
-0.0666854
-0.0537868
-0.0278887
0.0154106
0.0800721
0.17276
0.285855
0.445986
-0.402752
-0.139029
-0.0734579
-0.0447291
-0.0305707
-0.0266162
-0.0290839
-0.0353714
-0.0436517
-0.0522048
-0.0591214
-0.0621431
-0.0586154
-0.0452123
-0.0174496
0.0310795
0.108496
0.236657
0.427488
0.79368
)
;

boundaryField
{
    movingWall
    {
        type            zeroGradient;
    }
    fixedWalls
    {
        type            zeroGradient;
    }
    frontAndBack
    {
        type            empty;
    }
}


// ************************************************************************* //
