/*--------------------------------*- C++ -*----------------------------------*\
  =========                 |
  \\      /  F ield         | OpenFOAM: The Open Source CFD Toolbox
   \\    /   O peration     | Website:  https://openfoam.org
    \\  /    A nd           | Version:  13
     \\/     M anipulation  |
\*---------------------------------------------------------------------------*/
FoamFile
{
    format      ascii;
    class       surfaceScalarField;
    location    "23";
    object      phi_0;
}
// * * * * * * * * * * * * * * * * * * * * * * * * * * * * * * * * * * * * * //

dimensions      [0 3 -1 0 0 0 0];

internalField   nonuniform List<scalar> 
760
(
4.38996e-06
-4.40197e-06
-3.89757e-05
4.33657e-05
-0.000131155
9.21789e-05
-0.00025658
0.000125426
-0.000399476
0.000142896
-0.000546386
0.00014691
-0.000685371
0.000138984
-0.000804664
0.000119294
-0.000892108
8.74442e-05
-0.000935855
4.37474e-05
-0.000926202
-9.65312e-06
-0.000858533
-6.76698e-05
-0.000735905
-0.000122627
-0.000571069
-0.000164836
-0.000386243
-0.000184826
-0.00021007
-0.000176173
-7.16551e-05
-0.000138415
7.52701e-06
-7.91823e-05
2.3595e-05
-1.60682e-05
2.35948e-05
-4.70768e-05
4.26749e-05
-0.000209995
0.000206283
-0.000473772
0.000355956
-0.000805989
0.000457643
-0.00117273
0.000509641
-0.00154254
0.000516719
-0.00188592
0.000482365
-0.00217401
0.000407377
-0.00237849
0.000291923
-0.00247366
0.000138923
-0.00244057
-4.27451e-05
-0.00227164
-0.000236599
-0.00197631
-0.000417955
-0.00158353
-0.000557618
-0.00114107
-0.000627283
-0.000709496
-0.000607752
-0.000350408
-0.000497502
-0.000110605
-0.000318985
-5.67043e-06
-0.000121002
1.79243e-05
-0.000111448
0.000154123
-0.000405304
0.00050014
-0.000834714
0.000785366
-0.00135032
0.000973243
-0.00190521
0.00106454
-0.00245594
0.00106745
-0.00296122
0.00098764
-0.00338077
0.000826927
-0.00367592
0.000587073
-0.0038125
0.0002755
-0.00376575
-8.94882e-05
-0.00352626
-0.000476092
-0.00310586
-0.000838348
-0.0025415
-0.00112198
-0.00189509
-0.00127369
-0.00124726
-0.00125559
-0.00068346
-0.0010613
-0.000273871
-0.000728574
-5.21078e-05
-0.000342765
-3.41835e-05
-0.000173167
0.000327289
-0.000593682
0.000920656
-0.00117941
0.0013711
-0.00186204
0.00165586
-0.0025833
0.0017858
-0.00329143
0.00177558
-0.00393781
0.00163403
-0.00447521
0.00136433
-0.00485829
0.00097015
-0.00504654
0.000463747
-0.0050093
-0.000126728
-0.00473193
-0.000753463
-0.00422281
-0.00134747
-0.00351907
-0.00182572
-0.00268937
-0.00210339
-0.00183007
-0.00211489
-0.0010516
-0.00183976
-0.000454569
-0.00132561
-0.000101958
-0.000695376
-0.000136141
-0.000228292
0.000555581
-0.000763666
0.00145603
-0.00149112
0.00209856
-0.00232404
0.00248878
-0.00319442
0.00265619
-0.00404503
0.00262619
-0.00482342
0.00241242
-0.00547876
0.00201966
-0.00596138
0.00145277
-0.006225
0.000727372
-0.00623116
-0.000120572
-0.00595514
-0.00102948
-0.00539469
-0.00190792
-0.00457882
-0.00264159
-0.00357576
-0.00310645
-0.00249483
-0.00319581
-0.00147575
-0.00285884
-0.000660951
-0.00214041
-0.000156593
-0.00119973
-0.000292735
-0.000274776
0.000830357
-0.000908181
0.00208943
-0.00175757
0.00294795
-0.00272075
0.00345195
-0.0037223
0.00365774
-0.00470216
0.00360604
-0.00560707
0.00331733
-0.00638543
0.00279802
-0.00698525
0.00205259
-0.00735472
0.00109684
-0.00744573
-2.95599e-05
-0.00721848
-0.00125673
-0.00665281
-0.00247359
-0.00576008
-0.00353432
-0.00459863
-0.00426791
-0.003285
-0.00450944
-0.0019909
-0.00415294
-0.00091411
-0.0032172
-0.000223253
-0.00189059
-0.000515988
-0.000310696
0.00114105
-0.00102084
0.00279958
-0.00196685
0.00389396
-0.00303479
0.00451989
-0.00414452
0.00476747
-0.00523582
0.00469735
-0.00625747
0.00433898
-0.00715996
0.00370051
-0.00789133
0.00278396
-0.00839569
0.00160121
-0.00861386
0.000188602
-0.00848962
-0.00138097
-0.00797759
-0.00298561
-0.00706132
-0.00445059
-0.00577606
-0.00555317
-0.00423329
-0.00605222
-0.00263272
-0.00575351
-0.00123949
-0.00461043
-0.000311396
-0.00281869
-0.000827384
-0.000334139
0.00147519
-0.0010955
0.00356094
-0.0021069
0.00490536
-0.00324678
0.00565978
-0.00443301
0.0059537
-0.00560767
0.005872
-0.00672432
0.00545564
-0.0077387
0.00471488
-0.00860225
0.00364751
-0.0092581
0.00225706
-0.00963944
0.000569941
-0.00967236
-0.00134805
-0.00928408
-0.00337389
-0.00842103
-0.00531365
-0.00707905
-0.00689515
-0.00534344
-0.00778783
-0.00342553
-0.00767142
-0.00166166
-0.0063743
-0.000431569
-0.00404877
-0.00125895
-0.000343853
0.00181905
-0.00112763
0.00434471
-0.00216769
0.00594542
-0.00333845
0.00683053
-0.00455812
0.00717337
-0.00577327
0.00708715
-0.00694494
0.00662731
-0.00803758
0.00580752
-0.0090105
0.00462043
-0.00981141
0.00305797
-0.0103717
0.00113027
-0.0106055
-0.00111426
-0.0104145
-0.00356488
-0.00970312
-0.00602506
-0.00841152
-0.00818675
-0.00657017
-0.00962918
-0.00436853
-0.00987306
-0.00219919
-0.00854364
-0.000595118
-0.00565285
-0.00185407
-0.000340391
0.00215944
-0.00111709
0.00512141
-0.00214534
0.00697368
-0.00329814
0.00798333
-0.00449596
0.00837118
-0.00569182
0.00828301
-0.00685675
0.00779224
-0.0079675
0.00691827
-0.00899654
0.00564947
-0.00990342
0.00396485
-0.0106272
0.00185403
-0.0110799
-0.000661588
-0.0111477
-0.003497
-0.0106957
-0.00647705
-0.00959819
-0.0092843
-0.00780001
-0.0114274
-0.00541858
-0.0122545
-0.00285701
-0.0111052
-0.000813789
-0.00769607
-0.00266786
-0.000327668
0.00248711
-0.00107161
0.00586535
-0.0020475
0.00794958
-0.00312807
0.0090639
-0.00423797
0.00948108
-0.00533891
0.00938395
-0.00641442
0.00886775
-0.00745701
0.00796087
-0.00845737
0.00664983
-0.00939457
0.00490204
-0.0102266
0.0026861
-0.0108749
-1.33673e-05
-0.0112316
-0.00314024
-0.0111328
-0.00657585
-0.01039
-0.0100271
-0.00884062
-0.0129768
-0.00647164
-0.0146235
-0.00361419
-0.0139627
-0.00109819
-0.0102121
-0.00376605
-0.000315012
0.00280212
-0.00101104
0.00656137
-0.00189908
0.00883762
-0.00285143
0.0100163
-0.00380004
0.0104297
-0.00471873
0.0103026
-0.00560663
0.00975564
-0.0064749
0.00882913
-0.00733617
0.00751111
-0.00819492
0.00576079
-0.00903635
0.00352753
-0.00981829
0.000768572
-0.0104386
-0.00251994
-0.0107417
-0.00627278
-0.0104957
-0.0102731
-0.0094292
-0.0140432
-0.00735029
-0.0167024
-0.00440753
-0.0169054
-0.00145376
-0.0131658
-0.00521982
-0.000320164
0.00312228
-0.00097206
0.00721327
-0.00174709
0.00961265
-0.00251692
0.0107861
-0.00322721
0.01114
-0.00387032
0.0109458
-0.00446537
0.0103507
-0.0050448
0.00940856
-0.00564507
0.00811139
-0.00629867
0.00641438
-0.00702477
0.00425364
-0.0078168
0.0015606
-0.00861903
-0.00171771
-0.00930341
-0.0055884
-0.00963548
-0.00994102
-0.00926561
-0.0144131
-0.00780705
-0.0181609
-0.00511449
-0.019598
-0.00187243
-0.0164079
-0.00709225
-0.00037409
0.00349637
-0.00101329
0.00785247
-0.00166254
0.0102619
-0.00219647
0.01132
-0.00258784
0.0115313
-0.00285883
0.0112167
-0.00305506
0.0105469
-0.00323259
0.00958609
-0.00345121
0.00833001
-0.00376974
0.00673291
-0.00424009
0.00472399
-0.00489748
0.00221799
-0.00574122
-0.000873971
-0.00670369
-0.00462592
-0.00759874
-0.00904597
-0.00806173
-0.0139501
-0.00754683
-0.0186758
-0.0055424
-0.0216024
-0.00231876
-0.0196315
-0.00941101
-0.000529471
0.00402584
-0.00121878
0.00854178
-0.00173241
0.0107755
-0.00196534
0.0115529
-0.00194354
0.0115095
-0.0017369
0.0110101
-0.00142636
0.0102364
-0.00109363
0.00925336
-0.00081952
0.0080559
-0.000684056
0.00659744
-0.000765559
0.00480549
-0.0011366
0.00258903
-0.00185278
-0.000157799
-0.00292521
-0.00355349
-0.00426475
-0.00770643
-0.00557775
-0.0126371
-0.00625535
-0.0179982
-0.00542592
-0.0224318
-0.00270918
-0.0223483
-0.0121202
-0.000868758
0.0048946
-0.00168423
0.00935725
-0.00201364
0.0111049
-0.00182758
0.0113669
-0.00125279
0.0109348
-0.000432395
0.0101897
0.00050789
0.00929609
0.00146048
0.00830077
0.00232817
0.00718821
0.0030171
0.00590851
0.00343163
0.00439095
0.00347225
0.00254841
0.00303734
0.000277112
0.00203924
-0.00255539
0.000443946
-0.00611113
-0.00161012
-0.010583
-0.00360106
-0.0160073
-0.00441541
-0.0216175
-0.00288086
-0.0238828
-0.015001
-0.00149476
0.00638936
-0.00241129
0.0102738
-0.00233108
0.0110247
-0.00145123
0.010487
-7.63848e-05
0.00955991
0.00155299
0.00856033
0.00326638
0.00758271
0.00493925
0.0066279
0.00646984
0.00565763
0.00776262
0.00461573
0.00871748
0.00343609
0.00922235
0.00204354
0.00914703
0.000352423
0.00834943
-0.00175779
0.00668332
-0.00444502
0.00408858
-0.00798828
0.000840653
-0.0127594
-0.00200522
-0.0187716
-0.00250294
-0.0233851
-0.017504
-0.00234101
0.00873037
-0.00281993
0.0107527
-0.00158547
0.00979027
0.000573742
0.00832784
0.00312112
0.00701253
0.00575773
0.00592372
0.00831727
0.00502317
0.0106987
0.00424649
0.0128259
0.0035304
0.0146249
0.0028167
0.0160105
0.00205054
0.0168768
0.00117725
0.0170877
0.000141547
0.0164808
-0.00115092
0.0148418
-0.00280599
0.0119353
-0.00508184
0.00764973
-0.0084738
0.00261196
-0.0137338
-0.000908548
-0.0198646
-0.0184125
-0.00200263
0.010733
0.000357662
0.00839241
0.00431897
0.00582895
0.00833382
0.00431299
0.0120917
0.00325466
0.0154939
0.00252147
0.018518
0.00199914
0.0211644
0.00160007
0.023428
0.0012668
0.0252851
0.000959618
0.0266874
0.000648213
0.0275562
0.00030843
0.0277822
-8.44109e-05
0.0272131
-0.000581859
0.0256274
-0.00122031
0.0226957
-0.00215009
0.0179511
-0.00372918
0.01095
-0.00673275
0.00302461
-0.0119392
-0.0153879
0.010733
0.0191254
0.0249544
0.0292674
0.032522
0.0350435
0.0370426
0.0386427
0.0399095
0.0408691
0.0415173
0.0418258
0.0417413
0.0411595
0.0399392
0.0377891
0.0340599
0.0273272
0.0153879
)
;

boundaryField
{
    movingWall
    {
        type            calculated;
        value           uniform 0;
    }
    fixedWalls
    {
        type            calculated;
        value           uniform 0;
    }
    frontAndBack
    {
        type            empty;
    }
}


// ************************************************************************* //
