/*--------------------------------*- C++ -*----------------------------------*\
  =========                 |
  \\      /  F ield         | OpenFOAM: The Open Source CFD Toolbox
   \\    /   O peration     | Website:  https://openfoam.org
    \\  /    A nd           | Version:  13
     \\/     M anipulation  |
\*---------------------------------------------------------------------------*/
FoamFile
{
    format      ascii;
    class       volVectorField;
    location    "23";
    object      U;
}
// * * * * * * * * * * * * * * * * * * * * * * * * * * * * * * * * * * * * * //

dimensions      [0 1 -1 0 0 0 0];

internalField   nonuniform List<vector> 
400
(
(0.000213559 -0.000214076 0)
(-9.36497e-05 -1.49724e-05 0)
(-0.00151402 0.000202312 0)
(-0.00376279 0.000340554 0)
(-0.00651381 0.000413224 0)
(-0.00947162 0.000441457 0)
(-0.0123867 0.000435786 0)
(-0.0150259 0.000395708 0)
(-0.0171494 0.000314719 0)
(-0.0185109 0.000187263 0)
(-0.0188843 1.56947e-05 0)
(-0.0181137 -0.000186986 0)
(-0.0161735 -0.000388827 0)
(-0.0132179 -0.000547951 0)
(-0.00960398 -0.000620134 0)
(-0.0058603 -0.000573141 0)
(-0.00259523 -0.000400821 0)
(-0.000343958 -0.000134401 0)
(0.000586159 0.000143793 0)
(0.000320262 0.000307092 0)
(2.35271e-06 9.09427e-05 0)
(-0.00201779 0.00187317 0)
(-0.00641655 0.00366728 0)
(-0.0125489 0.00490666 0)
(-0.0197001 0.00556105 0)
(-0.0272153 0.00570066 0)
(-0.0344907 0.00537578 0)
(-0.0409464 0.00459397 0)
(-0.0460056 0.00334646 0)
(-0.0491127 0.001653 0)
(-0.0497991 -0.000394503 0)
(-0.0477745 -0.00260575 0)
(-0.0430385 -0.0046876 0)
(-0.0359697 -0.00628308 0)
(-0.0273506 -0.00704523 0)
(-0.0183059 -0.00674099 0)
(-0.0101236 -0.00535762 0)
(-0.00396725 -0.00318004 0)
(-0.000522449 -0.0008406 0)
(0.00024486 0.000614913 0)
(-0.000277825 0.0016804 0)
(-0.00439027 0.00643558 0)
(-0.011837 0.0106165 0)
(-0.0215414 0.0134422 0)
(-0.0324726 0.0148693 0)
(-0.0437402 0.0150156 0)
(-0.0545039 0.0139687 0)
(-0.0639496 0.0117527 0)
(-0.071279 0.00838286 0)
(-0.0757434 0.00395584 0)
(-0.0767269 -0.00126669 0)
(-0.0738588 -0.00680794 0)
(-0.0671397 -0.0119846 0)
(-0.0570483 -0.0159832 0)
(-0.0445863 -0.0180185 0)
(-0.031225 -0.0175544 0)
(-0.0187073 -0.0145406 0)
(-0.00869257 -0.00958911 0)
(-0.00231743 -0.00402873 0)
(8.96137e-05 6.80522e-05 0)
(-0.000532254 0.00454857 0)
(-0.00668661 0.0136263 0)
(-0.0170629 0.0208383 0)
(-0.0300807 0.0255182 0)
(-0.0443947 0.0277392 0)
(-0.0589403 0.0277102 0)
(-0.0727264 0.0255688 0)
(-0.0847972 0.0213635 0)
(-0.0942172 0.0151491 0)
(-0.100107 0.0071245 0)
(-0.101729 -0.00224362 0)
(-0.0985982 -0.0121504 0)
(-0.0906215 -0.0214569 0)
(-0.0782335 -0.028805 0)
(-0.0624908 -0.0328496 0)
(-0.0450803 -0.03261 0)
(-0.0281587 -0.0278774 0)
(-0.0139629 -0.019545 0)
(-0.00428204 -0.00969295 0)
(-3.65389e-05 -0.00145202 0)
(-0.000750686 0.00859758 0)
(-0.00874804 0.0232554 0)
(-0.0217899 0.0340555 0)
(-0.0378023 0.0407634 0)
(-0.0551476 0.0437398 0)
(-0.0726329 0.0433624 0)
(-0.0891833 0.0398467 0)
(-0.103773 0.0332719 0)
(-0.115393 0.0237289 0)
(-0.123065 0.011508 0)
(-0.125917 -0.00273674 0)
(-0.123284 -0.017887 0)
(-0.114855 -0.0323393 0)
(-0.100858 -0.0441288 0)
(-0.0822342 -0.051209 0)
(-0.0607723 -0.0519334 0)
(-0.0390478 -0.0456871 0)
(-0.0200407 -0.0334743 0)
(-0.00647998 -0.0181266 0)
(-0.000142567 -0.00399512 0)
(-0.00093047 0.0136716 0)
(-0.0104897 0.0350343 0)
(-0.0258182 0.0499329 0)
(-0.0444153 0.058833 0)
(-0.0643999 0.0625543 0)
(-0.0844983 0.0617354 0)
(-0.10361 0.0567072 0)
(-0.120703 0.0475819 0)
(-0.134743 0.0344629 0)
(-0.144682 0.0176828 0)
(-0.1495 -0.00198478 0)
(-0.148283 -0.0231666 0)
(-0.14038 -0.043845 0)
(-0.125634 -0.061408 0)
(-0.104674 -0.0729428 0)
(-0.0792129 -0.0758253 0)
(-0.052194 -0.0686293 0)
(-0.0275009 -0.0521346 0)
(-0.0091792 -0.0298677 0)
(-0.000263172 -0.00771368 0)
(-0.0010657 0.0195782 0)
(-0.0118369 0.048581 0)
(-0.0289666 0.0680219 0)
(-0.0496242 0.0792817 0)
(-0.0717504 0.0837929 0)
(-0.0940402 0.0825478 0)
(-0.115423 0.0760346 0)
(-0.134919 0.0643988 0)
(-0.151525 0.0477167 0)
(-0.164164 0.0262875 0)
(-0.171669 0.00089653 0)
(-0.172855 -0.0269606 0)
(-0.166646 -0.0549406 0)
(-0.15233 -0.0798047 0)
(-0.129978 -0.097631 0)
(-0.100949 -0.104448 0)
(-0.0683477 -0.0974332 0)
(-0.0370086 -0.0765448 0)
(-0.0127323 -0.045771 0)
(-0.000442754 -0.0129365 0)
(-0.0011488 0.0260858 0)
(-0.0127182 0.0634254 0)
(-0.0310604 0.087758 0)
(-0.0531213 0.101534 0)
(-0.0767319 0.106924 0)
(-0.100602 0.105365 0)
(-0.123744 0.0975476 0)
(-0.145287 0.0836528 0)
(-0.164328 0.0636874 0)
(-0.179824 0.037827 0)
(-0.190535 0.00673366 0)
(-0.195031 -0.028154 0)
(-0.191784 -0.0643292 0)
(-0.179425 -0.0980454 0)
(-0.157209 -0.124326 0)
(-0.12575 -0.137505 0)
(-0.0878741 -0.132631 0)
(-0.0491527 -0.107864 0)
(-0.017529 -0.0670123 0)
(-0.000736511 -0.0201966 0)
(-0.00117552 0.0329275 0)
(-0.0130864 0.0790172 0)
(-0.0319665 0.108458 0)
(-0.0546373 0.124852 0)
(-0.0788803 0.131211 0)
(-0.103461 0.129496 0)
(-0.127518 0.120655 0)
(-0.150354 0.10492 0)
(-0.171241 0.0821958 0)
(-0.189275 0.0524523 0)
(-0.203259 0.0160847 0)
(-0.211638 -0.0257155 0)
(-0.212527 -0.0705321 0)
(-0.203886 -0.114366 0)
(-0.183963 -0.151323 0)
(-0.152174 -0.173863 0)
(-0.110384 -0.174137 0)
(-0.0642598 -0.147105 0)
(-0.0239717 -0.0950098 0)
(-0.0012203 -0.0302491 0)
(-0.00115256 0.0398236 0)
(-0.0129581 0.0947579 0)
(-0.0316621 0.129338 0)
(-0.0540377 0.148333 0)
(-0.0778625 0.15567 0)
(-0.101992 0.15392 0)
(-0.125735 0.14435 0)
(-0.148624 0.12728 0)
(-0.170195 0.10251 0)
(-0.189804 0.0697504 0)
(-0.206468 0.0290156 0)
(-0.218705 -0.0189519 0)
(-0.22449 -0.0721113 0)
(-0.221266 -0.126627 0)
(-0.206232 -0.176083 0)
(-0.177227 -0.211212 0)
(-0.134321 -0.220721 0)
(-0.0821205 -0.194665 0)
(-0.0324329 -0.131233 0)
(-0.00200753 -0.0440864 0)
(-0.0011079 0.046532 0)
(-0.0124662 0.11007 0)
(-0.0303247 0.149567 0)
(-0.0514472 0.170932 0)
(-0.0736403 0.179079 0)
(-0.0958904 0.177273 0)
(-0.117722 0.167181 0)
(-0.138955 0.149264 0)
(-0.159469 0.123254 0)
(-0.179007 0.088602 0)
(-0.196983 0.0448914 0)
(-0.212217 -0.00772277 0)
(-0.222892 -0.0680104 0)
(-0.226271 -0.132658 0)
(-0.218692 -0.195423 0)
(-0.196296 -0.245945 0)
(-0.156606 -0.269498 0)
(-0.10161 -0.249647 0)
(-0.0431487 -0.176833 0)
(-0.00327171 -0.0629391 0)
(-0.00110595 0.0529327 0)
(-0.0119266 0.124511 0)
(-0.0284321 0.168359 0)
(-0.0473767 0.191527 0)
(-0.0666277 0.200025 0)
(-0.0853762 0.197906 0)
(-0.103428 0.187311 0)
(-0.120946 0.168913 0)
(-0.138216 0.14244 0)
(-0.15545 0.107134 0)
(-0.172596 0.0621561 0)
(-0.189151 0.00699023 0)
(-0.203738 -0.0580708 0)
(-0.213829 -0.130838 0)
(-0.21554 -0.206073 0)
(-0.203582 -0.273452 0)
(-0.172567 -0.315695 0)
(-0.120279 -0.309128 0)
(-0.0559911 -0.232028 0)
(-0.00526756 -0.0882248 0)
(-0.00127377 0.0591625 0)
(-0.0119281 0.137925 0)
(-0.0268625 0.185084 0)
(-0.0428162 0.209005 0)
(-0.0577791 0.216994 0)
(-0.0712972 0.213991 0)
(-0.083568 0.20267 0)
(-0.0951637 0.183972 0)
(-0.106814 0.157684 0)
(-0.119245 0.122927 0)
(-0.133016 0.0785213 0)
(-0.148327 0.0233191 0)
(-0.164649 -0.0432911 0)
(-0.18027 -0.120712 0)
(-0.191692 -0.205516 0)
(-0.193026 -0.288908 0)
(-0.17633 -0.352956 0)
(-0.134117 -0.367619 0)
(-0.0700809 -0.295229 0)
(-0.00832728 -0.121381 0)
(-0.00184969 0.065821 0)
(-0.0134585 0.150622 0)
(-0.0269721 0.19936 0)
(-0.039231 0.222303 0)
(-0.0485052 0.228422 0)
(-0.0549806 0.223628 0)
(-0.0594255 0.211129 0)
(-0.0629054 0.192125 0)
(-0.0666055 0.166502 0)
(-0.071733 0.133342 0)
(-0.079423 0.0912632 0)
(-0.090603 0.0386683 0)
(-0.105714 -0.0259443 0)
(-0.124242 -0.10348 0)
(-0.143913 -0.192898 0)
(-0.159456 -0.288461 0)
(-0.16163 -0.374328 0)
(-0.137665 -0.417153 0)
(-0.0832647 -0.362083 0)
(-0.0127831 -0.163494 0)
(-0.00328663 0.0743319 0)
(-0.0180835 0.163583 0)
(-0.0305614 0.211079 0)
(-0.0382795 0.230367 0)
(-0.0401661 0.232666 0)
(-0.0375409 0.224871 0)
(-0.0320016 0.210587 0)
(-0.0252038 0.191167 0)
(-0.0187755 0.166549 0)
(-0.0143229 0.135813 0)
(-0.0134363 0.0975039 0)
(-0.0176504 0.0497997 0)
(-0.0283124 -0.00934926 0)
(-0.0462347 -0.0820366 0)
(-0.0709781 -0.169593 0)
(-0.0992396 -0.270379 0)
(-0.122591 -0.373682 0)
(-0.124375 -0.448102 0)
(-0.0915507 -0.424656 0)
(-0.0187138 -0.214585 0)
(-0.00636405 0.0873952 0)
(-0.0280132 0.178256 0)
(-0.0392836 0.219866 0)
(-0.0405813 0.231587 0)
(-0.0323297 0.227559 0)
(-0.0177666 0.215415 0)
(0.000369198 0.198793 0)
(0.0197572 0.178927 0)
(0.0383832 0.155669 0)
(0.0543697 0.128075 0)
(0.0658435 0.0947023 0)
(0.0708702 0.0537268 0)
(0.0674159 0.00296109 0)
(0.0535227 -0.0602696 0)
(0.0276597 -0.138975 0)
(-0.00977483 -0.235629 0)
(-0.0537691 -0.347023 0)
(-0.0866178 -0.450322 0)
(-0.0885209 -0.47085 0)
(-0.0253077 -0.272263 0)
(-0.0125248 0.110609 0)
(-0.0452205 0.196707 0)
(-0.0514537 0.224538 0)
(-0.0408762 0.223118 0)
(-0.0170384 0.20983 0)
(0.0139283 0.192193 0)
(0.0480147 0.173106 0)
(0.0823791 0.153191 0)
(0.114847 0.131969 0)
(0.143509 0.108394 0)
(0.166456 0.0810833 0)
(0.181615 0.0483838 0)
(0.186566 0.00832199 0)
(0.178639 -0.0416935 0)
(0.154756 -0.105193 0)
(0.11246 -0.187487 0)
(0.0512017 -0.293355 0)
(-0.0143167 -0.414487 0)
(-0.0643345 -0.485121 0)
(-0.0295906 -0.33046 0)
(-0.0216114 0.148418 0)
(-0.0652291 0.213122 0)
(-0.0493945 0.215068 0)
(-0.0130331 0.195089 0)
(0.0358857 0.171612 0)
(0.0887323 0.149601 0)
(0.141272 0.129845 0)
(0.191061 0.111754 0)
(0.236466 0.0943076 0)
(0.276067 0.0763377 0)
(0.308323 0.0566074 0)
(0.331393 0.0337864 0)
(0.34284 0.00634788 0)
(0.339854 -0.0276617 0)
(0.318522 -0.071236 0)
(0.274659 -0.130265 0)
(0.202173 -0.214988 0)
(0.107942 -0.334974 0)
(-0.00320528 -0.451462 0)
(-0.0232653 -0.378735 0)
(-0.0274722 0.229336 0)
(-0.0364932 0.22312 0)
(0.0465602 0.176951 0)
(0.127046 0.138741 0)
(0.205599 0.1095 0)
(0.277486 0.0878758 0)
(0.341788 0.071578 0)
(0.398481 0.0585817 0)
(0.447618 0.0473867 0)
(0.488956 0.0368461 0)
(0.521796 0.0260106 0)
(0.544924 0.0140233 0)
(0.556397 5.64234e-06 0)
(0.553888 -0.0170366 0)
(0.533364 -0.0390878 0)
(0.490588 -0.0704556 0)
(0.415321 -0.120934 0)
(0.304905 -0.213375 0)
(0.125881 -0.348318 0)
(0.023668 -0.37879 0)
(0.21444 0.135797 0)
(0.285137 0.0984496 0)
(0.444655 0.0569153 0)
(0.547913 0.036584 0)
(0.621662 0.0241691 0)
(0.678249 0.0163207 0)
(0.722823 0.011336 0)
(0.758413 0.0080068 0)
(0.786853 0.00557322 0)
(0.809036 0.00357114 0)
(0.825148 0.00169399 0)
(0.834863 -0.000271455 0)
(0.837314 -0.00250674 0)
(0.83119 -0.00505118 0)
(0.813548 -0.00850244 0)
(0.781941 -0.0135056 0)
(0.72408 -0.0231768 0)
(0.635276 -0.0406016 0)
(0.43131 -0.0912947 0)
(0.270899 -0.153523 0)
)
;

boundaryField
{
    movingWall
    {
        type            fixedValue;
        value           uniform (1 0 0);
    }
    fixedWalls
    {
        type            fixedValue;
        value           uniform (0 0 0);
    }
    frontAndBack
    {
        type            empty;
    }
}


// ************************************************************************* //
