/*--------------------------------*- C++ -*----------------------------------*\
  =========                 |
  \\      /  F ield         | OpenFOAM: The Open Source CFD Toolbox
   \\    /   O peration     | Website:  https://openfoam.org
    \\  /    A nd           | Version:  13
     \\/     M anipulation  |
\*---------------------------------------------------------------------------*/
FoamFile
{
    format      ascii;
    class       volScalarField;
    location    "19";
    object      p;
}
// * * * * * * * * * * * * * * * * * * * * * * * * * * * * * * * * * * * * * //

dimensions      [0 2 -2 0 0 0 0];

internalField   nonuniform List<scalar> 
400
(
1.00674e-06
-0.000571186
-0.0012144
-0.00171689
-0.00195688
-0.00188209
-0.00146764
-0.000702499
0.000404401
0.001809
0.00341758
0.00507774
0.00659366
0.00775373
0.00838259
0.00839875
0.00785889
0.00697289
0.00605229
0.00549874
0.000570748
-1.93132e-05
-0.000568396
-0.000955396
-0.00113
-0.00105964
-0.000723384
-0.000106421
0.000791766
0.00194251
0.00327283
0.00466309
0.00594362
0.00693277
0.00747737
0.00750521
0.00706301
0.006323
0.00554767
0.00497716
0.00124617
0.000493734
-8.56986e-05
-0.00044003
-0.000604432
-0.000574168
-0.000334791
0.000135397
0.000852765
0.00181013
0.00295816
0.0041951
0.00536772
0.00629715
0.00682273
0.00685664
0.00642483
0.00567261
0.00481362
0.00404202
0.0017407
0.000764238
7.45272e-05
-0.000320759
-0.000535527
-0.000590644
-0.000475637
-0.000157105
0.000403464
0.00122579
0.00228553
0.00349673
0.00470555
0.00571356
0.00632331
0.00640228
0.00593795
0.00505535
0.00395349
0.00284976
0.00179537
0.000596173
-0.000226834
-0.000703586
-0.00101642
-0.00120489
-0.00125634
-0.00111933
-0.000726289
-2.32345e-05
0.000996542
0.00226842
0.0036348
0.00486586
0.00570325
0.00593699
0.00548531
0.00444074
0.00300555
0.00146804
0.0011947
-0.000202452
-0.00116219
-0.00175112
-0.00220921
-0.00258769
-0.0028654
-0.00296646
-0.00278645
-0.00222692
-0.00123783
0.000156812
0.00179896
0.00342567
0.0046958
0.00528019
0.00497745
0.00381151
0.00198525
-9.73765e-05
-0.000241107
-0.00179905
-0.00289063
-0.00361997
-0.00427465
-0.00491258
-0.00549989
-0.00593123
-0.00605727
-0.00572045
-0.00479851
-0.00327679
-0.00126226
0.000954268
0.00293331
0.00417645
0.00428567
0.00314208
0.000909546
-0.00184881
-0.00265049
-0.00432443
-0.00553876
-0.00643604
-0.00734285
-0.0083222
-0.00932695
-0.0102204
-0.0108017
-0.0108399
-0.0101225
-0.00852797
-0.00609645
-0.00310239
-7.74769e-05
0.00226315
0.0032202
0.00240267
-0.000169686
-0.00374472
-0.00611862
-0.00785856
-0.00918103
-0.0102672
-0.0114772
-0.012882
-0.0144254
-0.0159422
-0.0171774
-0.0178143
-0.0175214
-0.0160287
-0.0132396
-0.00934496
-0.00492476
-0.000931445
0.001517
0.00156295
-0.00112872
-0.00563784
-0.0106672
-0.0124191
-0.0138224
-0.015096
-0.0166348
-0.0185266
-0.020716
-0.0230174
-0.0251256
-0.0266331
-0.0270673
-0.0259606
-0.0230179
-0.0182389
-0.0121541
-0.00591018
-0.00113188
0.000612401
-0.00172228
-0.00718564
-0.0162546
-0.0179592
-0.0193892
-0.0207987
-0.0226325
-0.0250125
-0.0278983
-0.0310964
-0.0342605
-0.0368955
-0.0383761
-0.0379865
-0.0352654
-0.0298162
-0.0219895
-0.0129928
-0.00494808
-0.000365321
-0.00150646
-0.00771095
-0.0227954
-0.0243825
-0.0257348
-0.0271397
-0.0291333
-0.0318986
-0.0354282
-0.039533
-0.0438366
-0.047765
-0.0505597
-0.0513579
-0.0491441
-0.0433759
-0.0339725
-0.0219633
-0.00979353
-0.0010141
0.00028967
-0.00599057
-0.0302137
-0.0315776
-0.0326608
-0.0337826
-0.0356573
-0.0385673
-0.0425542
-0.0474381
-0.0528156
-0.0580428
-0.0622307
-0.0642908
-0.0630035
-0.0573148
-0.0466774
-0.0316913
-0.0147892
-0.000406825
0.00497465
3.12679e-05
-0.0385502
-0.0394802
-0.0399521
-0.0403173
-0.0416243
-0.0442973
-0.0484312
-0.053843
-0.0600879
-0.0664465
-0.0719104
-0.0752034
-0.0748537
-0.0694066
-0.0577941
-0.0399908
-0.0180134
0.0032882
0.0147062
0.0135625
-0.0481647
-0.0481476
-0.0473946
-0.0462752
-0.0464023
-0.0483601
-0.0522684
-0.0578981
-0.0647228
-0.071918
-0.0783436
-0.0825454
-0.0828183
-0.0773622
-0.0646359
-0.0439293
-0.0165369
0.0130247
0.0329363
0.0392851
-0.0602253
-0.0579489
-0.0548593
-0.0512059
-0.0494192
-0.0501691
-0.0535091
-0.0590804
-0.0662052
-0.0739032
-0.0808644
-0.0854399
-0.0856958
-0.0795114
-0.0649361
-0.0406075
-0.00697619
0.0328192
0.064796
0.0836785
-0.077473
-0.0694658
-0.0620812
-0.054544
-0.0501333
-0.049318
-0.0518953
-0.0572497
-0.0644732
-0.0723712
-0.0794267
-0.0837667
-0.0832094
-0.075277
-0.0576184
-0.0282107
0.0133516
0.0666601
0.115751
0.154806
-0.108919
-0.0850346
-0.0697694
-0.0563886
-0.0485378
-0.0458764
-0.0476172
-0.0527056
-0.0599058
-0.0677648
-0.0745405
-0.0781298
-0.0760966
-0.065538
-0.0436418
-0.0074462
0.0447404
0.114929
0.188075
0.263278
-0.168688
-0.100742
-0.073091
-0.052287
-0.0413088
-0.0376967
-0.0394366
-0.0448575
-0.0524058
-0.0604359
-0.067063
-0.0700383
-0.0666805
-0.0537842
-0.0278886
0.0154085
0.0800684
0.172756
0.285851
0.445982
-0.402749
-0.139027
-0.0734575
-0.0447297
-0.0305712
-0.0266154
-0.0290811
-0.0353665
-0.043645
-0.052197
-0.0591135
-0.0621362
-0.0586101
-0.0452095
-0.0174492
0.0310779
0.108493
0.236653
0.427484
0.793676
)
;

boundaryField
{
    movingWall
    {
        type            zeroGradient;
    }
    fixedWalls
    {
        type            zeroGradient;
    }
    frontAndBack
    {
        type            empty;
    }
}


// ************************************************************************* //
