/*--------------------------------*- C++ -*----------------------------------*\
  =========                 |
  \\      /  F ield         | OpenFOAM: The Open Source CFD Toolbox
   \\    /   O peration     | Website:  https://openfoam.org
    \\  /    A nd           | Version:  13
     \\/     M anipulation  |
\*---------------------------------------------------------------------------*/
FoamFile
{
    format      ascii;
    class       surfaceScalarField;
    location    "19";
    object      phi;
}
// * * * * * * * * * * * * * * * * * * * * * * * * * * * * * * * * * * * * * //

dimensions      [0 3 -1 0 0 0 0];

internalField   nonuniform List<scalar> 
760
(
4.38393e-06
-4.39506e-06
-3.89753e-05
4.33592e-05
-0.000131133
9.21575e-05
-0.000256526
0.000125394
-0.000399383
0.000142857
-0.000546253
0.000146869
-0.0006852
0.000138946
-0.000804461
0.000119262
-0.000891885
8.74234e-05
-0.000935626
4.37412e-05
-0.000925984
-9.64205e-06
-0.000858342
-6.76417e-05
-0.000735757
-0.000122585
-0.00057097
-0.000164786
-0.000386194
-0.000184777
-0.00021006
-0.000176133
-7.16692e-05
-0.000138391
7.50688e-06
-7.91761e-05
2.35837e-05
-1.60768e-05
2.35838e-05
-4.70671e-05
4.2672e-05
-0.000209943
0.000206235
-0.000473645
0.00035586
-0.000805766
0.000457514
-0.0011724
0.000509497
-0.00154211
0.000516573
-0.00188539
0.000482233
-0.0021734
0.000407272
-0.00237784
0.000291859
-0.00247301
0.000138911
-0.00243995
-4.26987e-05
-0.0022711
-0.000236497
-0.00197587
-0.000417809
-0.00158321
-0.000557447
-0.00114088
-0.000627113
-0.000709401
-0.000607609
-0.000350384
-0.000497408
-0.000110614
-0.000318946
-5.68087e-06
-0.000121009
1.7903e-05
-0.000111414
0.000154086
-0.00040518
0.000500001
-0.000834458
0.000785137
-0.0013499
0.000972957
-0.00190463
0.00106423
-0.00245521
0.00106715
-0.00296034
0.000987372
-0.00337979
0.000826721
-0.00367489
0.000586957
-0.00381147
0.000275489
-0.00376478
-8.93848e-05
-0.0035254
-0.000475882
-0.00310515
-0.000838054
-0.00254096
-0.00112164
-0.00189473
-0.00127335
-0.00124704
-0.00125529
-0.000683366
-0.00106109
-0.000273847
-0.000728465
-5.21094e-05
-0.000342747
-3.42064e-05
-0.000173109
0.000327195
-0.000593486
0.000920378
-0.00117903
0.00137068
-0.00186144
0.00165537
-0.00258249
0.00178528
-0.00329042
0.00177508
-0.00393664
0.00163359
-0.00447393
0.00136401
-0.00485695
0.000969976
-0.0050452
0.000463744
-0.00500803
-0.000126554
-0.00473079
-0.000753123
-0.00422185
-0.001347
-0.00351832
-0.00182517
-0.00268883
-0.00210284
-0.00182973
-0.00211439
-0.00105143
-0.00183939
-0.000454504
-0.00132539
-0.000101948
-0.000695303
-0.000136154
-0.000228213
0.000555408
-0.000763409
0.00145557
-0.00149064
0.00209791
-0.0023233
0.00248803
-0.00319343
0.00265542
-0.00404382
0.00262546
-0.00482204
0.00241181
-0.00547725
0.00201922
-0.00595981
0.00145254
-0.00622344
0.000727376
-0.00622967
-0.000120323
-0.00595379
-0.00102901
-0.00539352
-0.00190727
-0.00457787
-0.00264082
-0.00357505
-0.00310565
-0.00249437
-0.00319508
-0.00147549
-0.00285826
-0.000660842
-0.00214004
-0.00015657
-0.00119957
-0.000292724
-0.000274684
0.000830092
-0.000907886
0.00208878
-0.00175702
0.00294704
-0.00271993
0.00345093
-0.00372121
0.0036567
-0.00470084
0.00360509
-0.00560557
0.00331654
-0.00638381
0.00279745
-0.00698356
0.00205229
-0.00735304
0.00109685
-0.00744412
-2.92416e-05
-0.00721699
-0.00125614
-0.0066515
-0.00247275
-0.00575899
-0.00353333
-0.00459778
-0.00426686
-0.00328441
-0.00450845
-0.00199056
-0.00415212
-0.000913956
-0.00321664
-0.000223217
-0.00189031
-0.000515941
-0.000310601
0.00114069
-0.00102054
0.00279871
-0.00196629
0.00389279
-0.00303395
0.0045186
-0.00414343
0.00476618
-0.00523451
0.00469618
-0.00625599
0.00433802
-0.00715835
0.00369982
-0.00788966
0.0027836
-0.00839403
0.00160122
-0.00861224
0.00018897
-0.00848811
-0.00138027
-0.00797623
-0.00298463
-0.00706015
-0.00444941
-0.00577513
-0.00555189
-0.00423261
-0.00605097
-0.0026323
-0.00575243
-0.00123929
-0.00460965
-0.000311346
-0.00281826
-0.000827287
-0.000334051
0.00147474
-0.00109522
0.00355988
-0.00210638
0.00490396
-0.00324602
0.00565823
-0.00443202
0.00595218
-0.00560648
0.00587063
-0.00672298
0.00545452
-0.00773726
0.0047141
-0.00860077
0.00364711
-0.00925662
0.00225707
-0.00963799
0.000570345
-0.00967099
-0.00134728
-0.00928281
-0.0033728
-0.0084199
-0.00531232
-0.0070781
-0.00689368
-0.00534272
-0.00778635
-0.00342506
-0.00767009
-0.00166142
-0.00637328
-0.000431505
-0.00404818
-0.00125879
-0.000343785
0.00181853
-0.00112741
0.00434351
-0.00216728
0.00594383
-0.00333784
0.00682879
-0.00455733
0.00717167
-0.00577233
0.00708564
-0.0069439
0.00662609
-0.00803646
0.00580667
-0.00900936
0.00462001
-0.00981027
0.00305797
-0.0103706
0.0011307
-0.0106044
-0.00111346
-0.0104135
-0.00356374
-0.00970217
-0.00602366
-0.00841068
-0.00818517
-0.00656949
-0.00962755
-0.00436805
-0.00987152
-0.00219894
-0.0085424
-0.000595043
-0.00565207
-0.00185384
-0.000340352
0.00215888
-0.00111695
0.00512011
-0.00214509
0.00697196
-0.00329775
0.00798146
-0.00449545
0.00836937
-0.00569123
0.00828141
-0.00685611
0.00779097
-0.00796684
0.00691741
-0.00899589
0.00564905
-0.00990279
0.00396487
-0.0106266
0.00185448
-0.0110793
-0.000660777
-0.0111471
-0.00349585
-0.0106951
-0.00647565
-0.0095976
-0.00928271
-0.00779947
-0.0114257
-0.00541816
-0.0122528
-0.00285676
-0.0111038
-0.000813706
-0.00769512
-0.00266754
-0.000327665
0.00248655
-0.00107158
0.00586402
-0.00204744
0.00794782
-0.00312796
0.00906198
-0.00423783
0.00947923
-0.00533875
0.00938233
-0.00641427
0.00886649
-0.0074569
0.00796003
-0.00845731
0.00664946
-0.00939455
0.00490211
-0.0102267
0.00268659
-0.0108748
-1.26123e-05
-0.0112315
-0.00313913
-0.0111327
-0.00657452
-0.0103898
-0.0100256
-0.00884034
-0.0129751
-0.00647135
-0.0146218
-0.00361398
-0.0139612
-0.00109811
-0.010211
-0.00376565
-0.000315049
0.0028016
-0.00101113
0.00656011
-0.00189923
0.00883592
-0.00285163
0.0100144
-0.00380029
0.0104279
-0.00471904
0.0103011
-0.00560701
0.00975445
-0.00647535
0.00882837
-0.0073367
0.00751081
-0.00819549
0.00576091
-0.00903694
0.00352804
-0.00981892
0.000769365
-0.0104391
-0.00251891
-0.0107421
-0.00627158
-0.0104959
-0.0102718
-0.00942927
-0.0140418
-0.00735022
-0.0167009
-0.00440741
-0.016904
-0.0014537
-0.0131647
-0.00521935
-0.00032024
0.00312184
-0.000972273
0.00721214
-0.00174745
0.0096111
-0.00251743
0.0107844
-0.00322785
0.0111383
-0.00387109
0.0109443
-0.00446626
0.0103496
-0.00504579
0.0094079
-0.00564614
0.00811117
-0.00629979
0.00641456
-0.00702592
0.00425416
-0.00781792
0.00156137
-0.00862007
-0.00171676
-0.00930431
-0.00558734
-0.00963617
-0.00993989
-0.00926605
-0.0144119
-0.00780724
-0.0181597
-0.00511451
-0.0195967
-0.0018724
-0.0164068
-0.00709175
-0.000374198
0.00349603
-0.00101361
0.00785155
-0.0016631
0.0102606
-0.00219725
0.0113185
-0.00258883
0.0115299
-0.00286
0.0112155
-0.00305638
0.010546
-0.00323401
0.00958554
-0.00345271
0.00832986
-0.00377127
0.00673312
-0.00424161
0.0047245
-0.00489895
0.00221871
-0.0057426
-0.000873116
-0.00670492
-0.00462502
-0.00759976
-0.00904506
-0.00806247
-0.0139492
-0.00754727
-0.0186749
-0.00554258
-0.0216014
-0.00231877
-0.0196306
-0.00941053
-0.000529601
0.00402564
-0.00121917
0.00854112
-0.0017331
0.0107745
-0.00196634
0.0115518
-0.0019448
0.0115084
-0.00173838
0.0110091
-0.00142799
0.0102356
-0.00109537
0.00925292
-0.000821296
0.00805579
-0.000685822
0.00659765
-0.000767273
0.00480595
-0.00113823
0.00258967
-0.00185429
-0.000157062
-0.00292657
-0.00355274
-0.00426591
-0.00770571
-0.00557867
-0.0126364
-0.00625596
-0.0179976
-0.00542623
-0.0224311
-0.00270925
-0.0223476
-0.0121198
-0.000868892
0.00489453
-0.00168464
0.00935687
-0.00201439
0.0111043
-0.00182867
0.011366
-0.00125418
0.0109339
-0.000434017
0.0101889
0.000506106
0.00929548
0.00145861
0.00830041
0.00232629
0.00718812
0.00301527
0.00590867
0.0034299
0.00439132
0.00347065
0.00254893
0.00303588
0.000277702
0.00203794
-0.0025548
0.000442824
-0.00611059
-0.00161104
-0.0105826
-0.00360172
-0.0160069
-0.00441578
-0.0216171
-0.00288097
-0.0238824
-0.0150008
-0.00149487
0.00638939
-0.00241164
0.0102736
-0.00233174
0.0110244
-0.00145223
0.0104865
-7.76806e-05
0.00955932
0.00155145
0.00855977
0.00326468
0.00758226
0.00493746
0.00662762
0.00646804
0.00565753
0.00776089
0.00461582
0.00871587
0.00343634
0.00922089
0.00204391
0.00914576
0.000352841
0.00834833
-0.00175737
0.00668239
-0.00444465
0.00408781
-0.007988
0.000840084
-0.0127592
-0.00200558
-0.0187714
-0.00250307
-0.0233849
-0.0175038
-0.00234106
0.00873045
-0.00282012
0.0107527
-0.00158589
0.00979014
0.000573053
0.00832758
0.00312016
0.00701221
0.00575653
0.0059234
0.00831589
0.0050229
0.0106972
0.00424631
0.0128244
0.00353033
0.0146235
0.00281674
0.0160092
0.00205068
0.0168756
0.00117746
0.0170867
0.000141786
0.01648
-0.00115067
0.0148411
-0.00280579
0.0119348
-0.0050817
0.00764933
-0.00847372
0.0026117
-0.0137338
-0.000908662
-0.0198646
-0.0184125
-0.0020026
0.010733
0.000357666
0.00839244
0.00431887
0.00582893
0.00833354
0.00431292
0.0120912
0.00325455
0.0154932
0.00252136
0.0185171
0.00199904
0.0211634
0.00160001
0.023427
0.00126678
0.0252841
0.000959637
0.0266865
0.000648267
0.0275554
0.000308506
0.0277815
-8.43178e-05
0.0272126
-0.000581777
0.0256271
-0.00122025
0.0226954
-0.00215005
0.0179509
-0.00372917
0.0109499
-0.00673276
0.00302456
-0.0119392
-0.0153879
0.010733
0.0191255
0.0249544
0.0292673
0.0325219
0.0350432
0.0370423
0.0386423
0.0399091
0.0408687
0.041517
0.0418255
0.0417412
0.0411594
0.0399391
0.0377891
0.0340599
0.0273272
0.0153879
)
;

boundaryField
{
    movingWall
    {
        type            calculated;
        value           uniform 0;
    }
    fixedWalls
    {
        type            calculated;
        value           uniform 0;
    }
    frontAndBack
    {
        type            empty;
    }
}


// ************************************************************************* //
