/*--------------------------------*- C++ -*----------------------------------*\
  =========                 |
  \\      /  F ield         | OpenFOAM: The Open Source CFD Toolbox
   \\    /   O peration     | Website:  https://openfoam.org
    \\  /    A nd           | Version:  13
     \\/     M anipulation  |
\*---------------------------------------------------------------------------*/
FoamFile
{
    format      ascii;
    class       surfaceScalarField;
    location    "19";
    object      phi_0;
}
// * * * * * * * * * * * * * * * * * * * * * * * * * * * * * * * * * * * * * //

dimensions      [0 3 -1 0 0 0 0];

internalField   nonuniform List<scalar> 
760
(
4.38387e-06
-4.39503e-06
-3.89751e-05
4.3359e-05
-0.000131132
9.2157e-05
-0.000256526
0.000125393
-0.000399383
0.000142857
-0.000546252
0.000146869
-0.000685198
0.000138946
-0.00080446
0.000119262
-0.000891883
8.74231e-05
-0.000935625
4.37412e-05
-0.000925982
-9.64194e-06
-0.000858341
-6.76415e-05
-0.000735756
-0.000122585
-0.00057097
-0.000164786
-0.000386193
-0.000184776
-0.00021006
-0.000176133
-7.16693e-05
-0.000138391
7.50675e-06
-7.9176e-05
2.35837e-05
-1.60768e-05
2.35838e-05
-4.70672e-05
4.26722e-05
-0.000209942
0.000206235
-0.000473644
0.000355859
-0.000805764
0.000457513
-0.0011724
0.000509496
-0.00154211
0.000516572
-0.00188539
0.000482232
-0.0021734
0.000407272
-0.00237784
0.000291859
-0.00247301
0.000138911
-0.00243995
-4.26985e-05
-0.0022711
-0.000236496
-0.00197587
-0.000417808
-0.00158321
-0.000557446
-0.00114088
-0.000627112
-0.0007094
-0.000607609
-0.000350384
-0.000497407
-0.000110614
-0.000318946
-5.68098e-06
-0.00012101
1.79029e-05
-0.000111414
0.000154086
-0.00040518
0.0005
-0.000834456
0.000785136
-0.0013499
0.000972956
-0.00190463
0.00106423
-0.0024552
0.00106714
-0.00296034
0.000987371
-0.00337979
0.00082672
-0.00367489
0.000586956
-0.00381146
0.000275489
-0.00376478
-8.93842e-05
-0.00352539
-0.000475881
-0.00310515
-0.000838052
-0.00254096
-0.00112164
-0.00189473
-0.00127335
-0.00124704
-0.00125529
-0.000683366
-0.00106108
-0.000273847
-0.000728465
-5.21095e-05
-0.000342747
-3.42065e-05
-0.000173108
0.000327195
-0.000593485
0.000920376
-0.00117903
0.00137068
-0.00186144
0.00165536
-0.00258248
0.00178528
-0.00329041
0.00177507
-0.00393663
0.00163359
-0.00447392
0.00136401
-0.00485694
0.000969975
-0.0050452
0.000463744
-0.00500803
-0.000126553
-0.00473079
-0.000753121
-0.00422184
-0.001347
-0.00351831
-0.00182516
-0.00268883
-0.00210283
-0.00182973
-0.00211439
-0.00105143
-0.00183938
-0.000454503
-0.00132539
-0.000101948
-0.000695303
-0.000136154
-0.000228212
0.000555407
-0.000763407
0.00145557
-0.00149063
0.00209791
-0.00232329
0.00248802
-0.00319343
0.00265541
-0.00404382
0.00262546
-0.00482203
0.00241181
-0.00547724
0.00201922
-0.0059598
0.00145254
-0.00622343
0.000727376
-0.00622966
-0.000120322
-0.00595378
-0.00102901
-0.00539352
-0.00190726
-0.00457787
-0.00264081
-0.00357505
-0.00310565
-0.00249436
-0.00319508
-0.00147549
-0.00285826
-0.000660841
-0.00214003
-0.00015657
-0.00119957
-0.000292724
-0.000274683
0.000830091
-0.000907884
0.00208877
-0.00175702
0.00294704
-0.00271992
0.00345093
-0.00372121
0.0036567
-0.00470084
0.00360509
-0.00560557
0.00331654
-0.0063838
0.00279745
-0.00698355
0.00205229
-0.00735303
0.00109685
-0.00744411
-2.92397e-05
-0.00721698
-0.00125613
-0.0066515
-0.00247275
-0.00575899
-0.00353332
-0.00459778
-0.00426686
-0.00328441
-0.00450845
-0.00199056
-0.00415211
-0.000913955
-0.00321663
-0.000223217
-0.00189031
-0.000515941
-0.0003106
0.00114069
-0.00102054
0.00279871
-0.00196628
0.00389278
-0.00303394
0.00451859
-0.00414342
0.00476617
-0.0052345
0.00469617
-0.00625598
0.00433801
-0.00715834
0.00369982
-0.00788966
0.0027836
-0.00839402
0.00160122
-0.00861224
0.000188972
-0.0084881
-0.00138026
-0.00797623
-0.00298463
-0.00706015
-0.0044494
-0.00577512
-0.00555188
-0.00423261
-0.00605096
-0.0026323
-0.00575242
-0.00123929
-0.00460964
-0.000311346
-0.00281826
-0.000827287
-0.000334051
0.00147474
-0.00109522
0.00355987
-0.00210638
0.00490395
-0.00324601
0.00565822
-0.00443201
0.00595217
-0.00560647
0.00587063
-0.00672298
0.00545452
-0.00773726
0.0047141
-0.00860076
0.00364711
-0.00925661
0.00225707
-0.00963799
0.000570347
-0.00967098
-0.00134727
-0.00928281
-0.0033728
-0.0084199
-0.00531231
-0.0070781
-0.00689368
-0.00534272
-0.00778635
-0.00342505
-0.00767008
-0.00166142
-0.00637327
-0.000431505
-0.00404818
-0.00125879
-0.000343785
0.00181853
-0.00112741
0.0043435
-0.00216728
0.00594382
-0.00333784
0.00682878
-0.00455732
0.00717166
-0.00577233
0.00708563
-0.00694389
0.00662608
-0.00803646
0.00580666
-0.00900936
0.00462
-0.00981026
0.00305798
-0.0103706
0.0011307
-0.0106044
-0.00111345
-0.0104135
-0.00356373
-0.00970217
-0.00602365
-0.00841068
-0.00818517
-0.00656948
-0.00962754
-0.00436805
-0.00987152
-0.00219893
-0.00854239
-0.000595042
-0.00565207
-0.00185383
-0.000340352
0.00215888
-0.00111695
0.0051201
-0.00214509
0.00697195
-0.00329775
0.00798145
-0.00449545
0.00836936
-0.00569123
0.00828141
-0.0068561
0.00779096
-0.00796684
0.0069174
-0.00899589
0.00564905
-0.00990278
0.00396487
-0.0106266
0.00185449
-0.0110792
-0.000660773
-0.0111471
-0.00349585
-0.0106951
-0.00647565
-0.0095976
-0.00928271
-0.00779947
-0.0114257
-0.00541816
-0.0122528
-0.00285675
-0.0111038
-0.000813706
-0.00769512
-0.00266754
-0.000327665
0.00248654
-0.00107158
0.00586402
-0.00204744
0.00794781
-0.00312796
0.00906197
-0.00423783
0.00947922
-0.00533875
0.00938232
-0.00641427
0.00886648
-0.0074569
0.00796003
-0.0084573
0.00664946
-0.00939455
0.00490212
-0.0102267
0.00268659
-0.0108748
-1.26084e-05
-0.0112315
-0.00313912
-0.0111327
-0.00657451
-0.0103898
-0.0100256
-0.00884034
-0.0129751
-0.00647135
-0.0146218
-0.00361398
-0.0139612
-0.00109811
-0.010211
-0.00376565
-0.000315049
0.00280159
-0.00101113
0.0065601
-0.00189923
0.00883591
-0.00285164
0.0100144
-0.0038003
0.0104279
-0.00471905
0.0103011
-0.00560701
0.00975445
-0.00647535
0.00882837
-0.0073367
0.0075108
-0.0081955
0.00576091
-0.00903695
0.00352804
-0.00981892
0.00076937
-0.0104391
-0.0025189
-0.0107421
-0.00627157
-0.0104959
-0.0102717
-0.00942927
-0.0140418
-0.00735022
-0.0167009
-0.00440741
-0.016904
-0.0014537
-0.0131647
-0.00521935
-0.00032024
0.00312183
-0.000972274
0.00721213
-0.00174745
0.00961109
-0.00251743
0.0107844
-0.00322786
0.0111383
-0.0038711
0.0109443
-0.00446626
0.0103496
-0.00504579
0.0094079
-0.00564615
0.00811116
-0.0062998
0.00641457
-0.00702592
0.00425416
-0.00781793
0.00156138
-0.00862008
-0.00171676
-0.00930431
-0.00558734
-0.00963617
-0.00993989
-0.00926605
-0.0144119
-0.00780724
-0.0181597
-0.00511451
-0.0195967
-0.0018724
-0.0164068
-0.00709175
-0.000374199
0.00349603
-0.00101361
0.00785154
-0.0016631
0.0102606
-0.00219726
0.0113185
-0.00258883
0.0115299
-0.00286001
0.0112155
-0.00305639
0.010546
-0.00323402
0.00958554
-0.00345272
0.00832986
-0.00377128
0.00673312
-0.00424162
0.0047245
-0.00489896
0.00221872
-0.0057426
-0.000873111
-0.00670493
-0.00462501
-0.00759977
-0.00904505
-0.00806247
-0.0139492
-0.00754727
-0.0186749
-0.00554258
-0.0216014
-0.00231877
-0.0196306
-0.00941052
-0.000529602
0.00402563
-0.00121918
0.00854112
-0.00173311
0.0107745
-0.00196634
0.0115517
-0.00194481
0.0115084
-0.00173839
0.0110091
-0.001428
0.0102356
-0.00109538
0.00925291
-0.000821305
0.00805579
-0.000685831
0.00659765
-0.000767282
0.00480596
-0.00113824
0.00258968
-0.0018543
-0.000157058
-0.00292658
-0.00355273
-0.00426592
-0.00770571
-0.00557867
-0.0126364
-0.00625597
-0.0179976
-0.00542623
-0.0224311
-0.00270925
-0.0223476
-0.0121198
-0.000868893
0.00489453
-0.00168464
0.00935687
-0.00201439
0.0111043
-0.00182867
0.011366
-0.00125419
0.0109339
-0.000434025
0.0101889
0.000506096
0.00929548
0.0014586
0.00830041
0.00232628
0.00718811
0.00301526
0.00590867
0.00342989
0.00439132
0.00347064
0.00254893
0.00303587
0.000277705
0.00203794
-0.00255479
0.000442818
-0.00611059
-0.00161104
-0.0105826
-0.00360172
-0.0160069
-0.00441579
-0.0216171
-0.00288097
-0.0238824
-0.0150007
-0.00149487
0.00638939
-0.00241164
0.0102736
-0.00233175
0.0110244
-0.00145224
0.0104865
-7.76875e-05
0.00955932
0.00155144
0.00855977
0.00326467
0.00758226
0.00493745
0.00662762
0.00646803
0.00565753
0.00776088
0.00461582
0.00871586
0.00343634
0.00922089
0.00204391
0.00914575
0.000352843
0.00834832
-0.00175737
0.00668238
-0.00444465
0.00408781
-0.007988
0.000840081
-0.0127592
-0.00200558
-0.0187714
-0.00250307
-0.0233849
-0.0175038
-0.00234106
0.00873045
-0.00282012
0.0107527
-0.00158589
0.00979014
0.000573049
0.00832758
0.00312016
0.00701221
0.00575652
0.0059234
0.00831588
0.0050229
0.0106972
0.00424631
0.0128244
0.00353033
0.0146235
0.00281674
0.0160091
0.00205068
0.0168756
0.00117746
0.0170867
0.000141787
0.01648
-0.00115067
0.0148411
-0.00280579
0.0119348
-0.00508169
0.00764933
-0.00847372
0.0026117
-0.0137338
-0.000908663
-0.0198646
-0.0184125
-0.0020026
0.010733
0.000357667
0.00839244
0.00431887
0.00582893
0.00833354
0.00431292
0.0120912
0.00325455
0.0154932
0.00252136
0.0185171
0.00199904
0.0211634
0.00160001
0.0234269
0.00126678
0.025284
0.000959637
0.0266865
0.000648267
0.0275554
0.000308507
0.0277815
-8.43172e-05
0.0272126
-0.000581776
0.0256271
-0.00122025
0.0226954
-0.00215005
0.0179509
-0.00372917
0.0109499
-0.00673276
0.00302456
-0.0119392
-0.0153879
0.010733
0.0191255
0.0249544
0.0292673
0.0325219
0.0350432
0.0370423
0.0386423
0.0399091
0.0408687
0.041517
0.0418255
0.0417412
0.0411594
0.0399391
0.0377891
0.0340599
0.0273272
0.0153879
)
;

boundaryField
{
    movingWall
    {
        type            calculated;
        value           uniform 0;
    }
    fixedWalls
    {
        type            calculated;
        value           uniform 0;
    }
    frontAndBack
    {
        type            empty;
    }
}


// ************************************************************************* //
