/*--------------------------------*- C++ -*----------------------------------*\
  =========                 |
  \\      /  F ield         | OpenFOAM: The Open Source CFD Toolbox
   \\    /   O peration     | Website:  https://openfoam.org
    \\  /    A nd           | Version:  13
     \\/     M anipulation  |
\*---------------------------------------------------------------------------*/
FoamFile
{
    format      ascii;
    class       volVectorField;
    location    "19";
    object      U;
}
// * * * * * * * * * * * * * * * * * * * * * * * * * * * * * * * * * * * * * //

dimensions      [0 1 -1 0 0 0 0];

internalField   nonuniform List<vector> 
400
(
(0.00021347 -0.000213973 0)
(-9.37722e-05 -1.49208e-05 0)
(-0.00151385 0.0002023 0)
(-0.00376207 0.000340497 0)
(-0.00651235 0.000413137 0)
(-0.00946936 0.000441353 0)
(-0.0123836 0.000435674 0)
(-0.0150221 0.0003956 0)
(-0.017145 0.000314631 0)
(-0.0185063 0.000187213 0)
(-0.0188797 1.56976e-05 0)
(-0.0181096 -0.000186922 0)
(-0.01617 -0.000388708 0)
(-0.0132154 -0.0005478 0)
(-0.00960251 -0.000619984 0)
(-0.00585976 -0.000573031 0)
(-0.00259535 -0.000400777 0)
(-0.000344364 -0.000134432 0)
(0.000585812 0.000143692 0)
(0.000320158 0.000306991 0)
(2.32192e-06 9.10795e-05 0)
(-0.00201735 0.00187283 0)
(-0.0064149 0.00366639 0)
(-0.0125455 0.00490537 0)
(-0.0196946 0.00555952 0)
(-0.0272076 0.00569907 0)
(-0.034481 0.00537429 0)
(-0.040935 0.00459274 0)
(-0.0459929 0.00334567 0)
(-0.0490995 0.00165278 0)
(-0.0497862 -0.000394063 0)
(-0.0477628 -0.00260466 0)
(-0.0430285 -0.00468599 0)
(-0.0359621 -0.00628117 0)
(-0.0273455 -0.00704334 0)
(-0.0183031 -0.00673945 0)
(-0.0101226 -0.00535667 0)
(-0.00396727 -0.00317975 0)
(-0.000522775 -0.000840861 0)
(0.000244743 0.000614558 0)
(-0.000277756 0.00168012 0)
(-0.00438894 0.00643393 0)
(-0.0118333 0.0106136 0)
(-0.0215348 0.0134383 0)
(-0.0324626 0.014865 0)
(-0.0437269 0.0150113 0)
(-0.0544876 0.0139649 0)
(-0.0639309 0.0117497 0)
(-0.0712587 0.00838107 0)
(-0.0757226 0.00395557 0)
(-0.0767067 -0.00126531 0)
(-0.0738403 -0.00680498 0)
(-0.0671238 -0.0119804 0)
(-0.0570357 -0.0159783 0)
(-0.0445773 -0.0180136 0)
(-0.0312193 -0.0175502 0)
(-0.0187045 -0.0145378 0)
(-0.00869163 -0.00958782 0)
(-0.00231741 -0.00402875 0)
(8.95313e-05 6.75601e-05 0)
(-0.000532077 0.00454737 0)
(-0.00668437 0.0136223 0)
(-0.0170573 0.0208321 0)
(-0.0300709 0.0255106 0)
(-0.0443806 0.0277311 0)
(-0.058922 0.0277023 0)
(-0.0727045 0.0255619 0)
(-0.0847723 0.0213583 0)
(-0.0941906 0.0151461 0)
(-0.10008 0.00712432 0)
(-0.101703 -0.0022409 0)
(-0.0985739 -0.012145 0)
(-0.0906003 -0.0214494 0)
(-0.0782163 -0.0287962 0)
(-0.0624779 -0.0328407 0)
(-0.0450716 -0.0326023 0)
(-0.0281537 -0.0278718 0)
(-0.0139608 -0.0195419 0)
(-0.00428155 -0.0096922 0)
(-3.65847e-05 -0.00145244 0)
(-0.000750418 0.00859498 0)
(-0.00874504 0.0232482 0)
(-0.0217826 0.034045 0)
(-0.0377901 0.0407511 0)
(-0.0551303 0.043727 0)
(-0.0726108 0.0433502 0)
(-0.089157 0.0398363 0)
(-0.103744 0.0332643 0)
(-0.115361 0.0237249 0)
(-0.123033 0.011508 0)
(-0.125886 -0.0027325 0)
(-0.123255 -0.0178788 0)
(-0.11483 -0.032328 0)
(-0.100836 -0.0441157 0)
(-0.0822177 -0.0511955 0)
(-0.0607607 -0.0519212 0)
(-0.0390408 -0.0456777 0)
(-0.0200373 -0.0334686 0)
(-0.00647899 -0.0181244 0)
(-0.000142576 -0.00399521 0)
(-0.000930142 0.0136672 0)
(-0.0104862 0.0350232 0)
(-0.0258099 0.0499174 0)
(-0.0444016 0.0588153 0)
(-0.0643807 0.0625363 0)
(-0.084474 0.0617186 0)
(-0.103582 0.0566931 0)
(-0.120672 0.0475718 0)
(-0.134709 0.0344576 0)
(-0.144648 0.017683 0)
(-0.149467 -0.00197911 0)
(-0.148252 -0.0231558 0)
(-0.140351 -0.04383 0)
(-0.12561 -0.0613904 0)
(-0.104654 -0.0729243 0)
(-0.0791986 -0.0758081 0)
(-0.0521848 -0.0686155 0)
(-0.0274962 -0.0521254 0)
(-0.00917769 -0.0298635 0)
(-0.000263143 -0.00771318 0)
(-0.00106536 0.0195719 0)
(-0.0118333 0.0485657 0)
(-0.0289581 0.0680011 0)
(-0.0496102 0.0792585 0)
(-0.071731 0.0837696 0)
(-0.0940159 0.0825264 0)
(-0.115395 0.076017 0)
(-0.134888 0.0643862 0)
(-0.151492 0.0477102 0)
(-0.16413 0.0262876 0)
(-0.171636 0.000903438 0)
(-0.172823 -0.0269474 0)
(-0.166617 -0.0549223 0)
(-0.152305 -0.0797828 0)
(-0.129957 -0.0976075 0)
(-0.100933 -0.104425 0)
(-0.0683368 -0.0974142 0)
(-0.0370027 -0.0765315 0)
(-0.0127303 -0.0457641 0)
(-0.000442676 -0.0129351 0)
(-0.00114848 0.0260776 0)
(-0.0127149 0.063406 0)
(-0.0310526 0.0877321 0)
(-0.0531084 0.101505 0)
(-0.0767141 0.106896 0)
(-0.10058 0.10534 0)
(-0.123718 0.0975266 0)
(-0.145259 0.083638 0)
(-0.164298 0.0636798 0)
(-0.179794 0.0378272 0)
(-0.190506 0.00674152 0)
(-0.195002 -0.0281391 0)
(-0.191758 -0.0643082 0)
(-0.179401 -0.09802 0)
(-0.157188 -0.124298 0)
(-0.125733 -0.137477 0)
(-0.0878622 -0.132606 0)
(-0.0491458 -0.107846 0)
(-0.0175264 -0.0670022 0)
(-0.000736373 -0.0201941 0)
(-0.00117529 0.0329177 0)
(-0.0130838 0.0789942 0)
(-0.0319603 0.108428 0)
(-0.054627 0.124819 0)
(-0.0788661 0.131179 0)
(-0.103443 0.129467 0)
(-0.127498 0.120631 0)
(-0.150332 0.104903 0)
(-0.171218 0.0821875 0)
(-0.189252 0.0524525 0)
(-0.203237 0.0160932 0)
(-0.211616 -0.0256995 0)
(-0.212506 -0.0705095 0)
(-0.203866 -0.114338 0)
(-0.183945 -0.151292 0)
(-0.152159 -0.173831 0)
(-0.110373 -0.174108 0)
(-0.0642525 -0.147083 0)
(-0.0239687 -0.0949961 0)
(-0.00122009 -0.0302451 0)
(-0.00115246 0.0398127 0)
(-0.0129566 0.0947324 0)
(-0.0316583 0.129304 0)
(-0.0540312 0.148297 0)
(-0.0778535 0.155635 0)
(-0.101981 0.153888 0)
(-0.125722 0.144325 0)
(-0.148611 0.127262 0)
(-0.170181 0.102501 0)
(-0.189791 0.0697507 0)
(-0.206456 0.0290244 0)
(-0.218693 -0.0189357 0)
(-0.224478 -0.0720882 0)
(-0.221254 -0.126599 0)
(-0.20622 -0.17605 0)
(-0.177215 -0.211178 0)
(-0.134311 -0.220689 0)
(-0.0821135 -0.194638 0)
(-0.0324297 -0.131215 0)
(-0.00200723 -0.0440809 0)
(-0.00110796 0.0465206 0)
(-0.012466 0.110044 0)
(-0.0303239 0.149532 0)
(-0.0514455 0.170893 0)
(-0.0736377 0.179042 0)
(-0.0958873 0.177241 0)
(-0.117719 0.167156 0)
(-0.138952 0.149247 0)
(-0.159467 0.123245 0)
(-0.179006 0.088603 0)
(-0.196983 0.0449009 0)
(-0.212217 -0.00770548 0)
(-0.222891 -0.0679874 0)
(-0.226269 -0.13263 0)
(-0.218689 -0.195391 0)
(-0.196291 -0.245912 0)
(-0.1566 -0.269465 0)
(-0.101604 -0.249618 0)
(-0.0431457 -0.176813 0)
(-0.00327133 -0.0629318 0)
(-0.00110616 0.0529217 0)
(-0.011928 0.124485 0)
(-0.0284346 0.168323 0)
(-0.0473803 0.191488 0)
(-0.0666321 0.199988 0)
(-0.0853817 0.197874 0)
(-0.103435 0.187286 0)
(-0.120954 0.168897 0)
(-0.138226 0.142433 0)
(-0.155462 0.107136 0)
(-0.172608 0.0621662 0)
(-0.189164 0.00700724 0)
(-0.20375 -0.0580491 0)
(-0.213839 -0.130813 0)
(-0.215547 -0.206045 0)
(-0.203585 -0.273421 0)
(-0.172567 -0.315663 0)
(-0.120276 -0.309098 0)
(-0.0559888 -0.232005 0)
(-0.00526711 -0.088216 0)
(-0.00127412 0.0591526 0)
(-0.0119309 0.137901 0)
(-0.0268683 0.185051 0)
(-0.042825 0.208968 0)
(-0.0577906 0.216959 0)
(-0.0713114 0.213961 0)
(-0.0835845 0.202647 0)
(-0.0951825 0.183957 0)
(-0.106835 0.157679 0)
(-0.119267 0.122931 0)
(-0.133039 0.0785315 0)
(-0.14835 0.0233346 0)
(-0.164672 -0.0432713 0)
(-0.18029 -0.12069 0)
(-0.191709 -0.205492 0)
(-0.193037 -0.288882 0)
(-0.176336 -0.352928 0)
(-0.134119 -0.367591 0)
(-0.0700801 -0.295206 0)
(-0.00832684 -0.121371 0)
(-0.00185016 0.065813 0)
(-0.0134625 0.150601 0)
(-0.0269808 0.199331 0)
(-0.0392446 0.22227 0)
(-0.0485231 0.22839 0)
(-0.0550024 0.223601 0)
(-0.0594506 0.211108 0)
(-0.062933 0.192113 0)
(-0.066635 0.166499 0)
(-0.0717636 0.133346 0)
(-0.0794538 0.0912737 0)
(-0.0906332 0.0386835 0)
(-0.105743 -0.0259263 0)
(-0.124269 -0.10346 0)
(-0.143935 -0.192878 0)
(-0.159474 -0.28844 0)
(-0.161642 -0.374306 0)
(-0.137671 -0.41713 0)
(-0.0832658 -0.362062 0)
(-0.0127828 -0.163484 0)
(-0.00328715 0.0743263 0)
(-0.0180884 0.163567 0)
(-0.0305722 0.211055 0)
(-0.0382966 0.23034 0)
(-0.0401889 0.23264 0)
(-0.0375685 0.224848 0)
(-0.0320329 0.21057 0)
(-0.0252378 0.191157 0)
(-0.0188109 0.166546 0)
(-0.0143586 0.135818 0)
(-0.0134713 0.0975139 0)
(-0.017684 0.0498136 0)
(-0.0283441 -0.00933326 0)
(-0.0462637 -0.0820201 0)
(-0.0710036 -0.169577 0)
(-0.0992607 -0.270364 0)
(-0.122607 -0.373667 0)
(-0.124384 -0.448085 0)
(-0.0915538 -0.42464 0)
(-0.0187138 -0.214575 0)
(-0.00636454 0.0873924 0)
(-0.0280182 0.178246 0)
(-0.0392952 0.219849 0)
(-0.0405998 0.231566 0)
(-0.0323547 0.227538 0)
(-0.017797 0.215397 0)
(0.000334792 0.198779 0)
(0.0197203 0.178919 0)
(0.0383454 0.155667 0)
(0.0543323 0.128079 0)
(0.0658076 0.0947108 0)
(0.0708366 0.0537386 0)
(0.067385 0.00297451 0)
(0.0534949 -0.0602561 0)
(0.0276353 -0.138962 0)
(-0.0097954 -0.235618 0)
(-0.0537851 -0.347012 0)
(-0.0866282 -0.450312 0)
(-0.0885253 -0.470839 0)
(-0.025308 -0.272256 0)
(-0.0125251 0.110609 0)
(-0.0452246 0.196702 0)
(-0.0514638 0.224527 0)
(-0.0408929 0.223104 0)
(-0.0170616 0.209815 0)
(0.0138996 0.19218 0)
(0.0479819 0.173095 0)
(0.0823438 0.153184 0)
(0.114811 0.131967 0)
(0.143474 0.108396 0)
(0.166422 0.0810895 0)
(0.181584 0.0483926 0)
(0.186538 0.00833219 0)
(0.178615 -0.0416833 0)
(0.154735 -0.105184 0)
(0.112443 -0.18748 0)
(0.051188 -0.293349 0)
(-0.0143262 -0.414482 0)
(-0.0643391 -0.485115 0)
(-0.0295911 -0.330456 0)
(-0.0216113 0.148419 0)
(-0.0652309 0.213121 0)
(-0.0494003 0.215063 0)
(-0.0130441 0.195081 0)
(0.0358691 0.171603 0)
(0.0887106 0.149592 0)
(0.141246 0.129838 0)
(0.191032 0.11175 0)
(0.236435 0.0943058 0)
(0.276037 0.0763388 0)
(0.308295 0.0566111 0)
(0.331368 0.033792 0)
(0.342818 0.00635455 0)
(0.339836 -0.027655 0)
(0.318507 -0.0712303 0)
(0.274647 -0.130261 0)
(0.202164 -0.214986 0)
(0.107935 -0.334972 0)
(-0.00320888 -0.45146 0)
(-0.0232658 -0.378733 0)
(-0.0274718 0.229338 0)
(-0.0364925 0.223121 0)
(0.0465595 0.17695 0)
(0.127042 0.138738 0)
(0.205592 0.109496 0)
(0.277474 0.0878717 0)
(0.341772 0.0715744 0)
(0.398462 0.0585793 0)
(0.447597 0.0473857 0)
(0.488935 0.0368466 0)
(0.521776 0.0260124 0)
(0.544907 0.014026 0)
(0.556383 8.7587e-06 0)
(0.553877 -0.0170336 0)
(0.533356 -0.0390853 0)
(0.490583 -0.0704539 0)
(0.415318 -0.120933 0)
(0.304902 -0.213375 0)
(0.125879 -0.348318 0)
(0.0236675 -0.37879 0)
(0.21444 0.135798 0)
(0.285138 0.0984502 0)
(0.444657 0.0569155 0)
(0.547914 0.0365839 0)
(0.621661 0.0241687 0)
(0.678245 0.0163202 0)
(0.722817 0.0113356 0)
(0.758406 0.00800659 0)
(0.786845 0.00557323 0)
(0.809028 0.00357138 0)
(0.825141 0.0016944 0)
(0.834857 -0.000270953 0)
(0.837309 -0.00250634 0)
(0.831188 -0.00505082 0)
(0.813547 -0.0085022 0)
(0.781941 -0.0135055 0)
(0.724081 -0.0231769 0)
(0.635276 -0.0406017 0)
(0.43131 -0.0912949 0)
(0.270899 -0.153523 0)
)
;

boundaryField
{
    movingWall
    {
        type            fixedValue;
        value           uniform (1 0 0);
    }
    fixedWalls
    {
        type            fixedValue;
        value           uniform (0 0 0);
    }
    frontAndBack
    {
        type            empty;
    }
}


// ************************************************************************* //
