/*--------------------------------*- C++ -*----------------------------------*\
  =========                 |
  \\      /  F ield         | OpenFOAM: The Open Source CFD Toolbox
   \\    /   O peration     | Website:  https://openfoam.org
    \\  /    A nd           | Version:  13
     \\/     M anipulation  |
\*---------------------------------------------------------------------------*/
FoamFile
{
    format      ascii;
    class       volVectorField;
    location    "19";
    object      U_0;
}
// * * * * * * * * * * * * * * * * * * * * * * * * * * * * * * * * * * * * * //

dimensions      [0 1 -1 0 0 0 0];

internalField   nonuniform List<vector> 
400
(
(0.00021347 -0.000213972 0)
(-9.37713e-05 -1.4922e-05 0)
(-0.00151385 0.000202297 0)
(-0.00376207 0.000340495 0)
(-0.00651234 0.000413138 0)
(-0.00946935 0.000441355 0)
(-0.0123836 0.000435675 0)
(-0.0150221 0.000395599 0)
(-0.017145 0.000314629 0)
(-0.0185063 0.000187212 0)
(-0.0188797 1.56979e-05 0)
(-0.0181095 -0.000186921 0)
(-0.01617 -0.000388708 0)
(-0.0132154 -0.000547799 0)
(-0.00960251 -0.000619983 0)
(-0.00585975 -0.00057303 0)
(-0.00259535 -0.000400777 0)
(-0.000344367 -0.000134432 0)
(0.00058581 0.000143692 0)
(0.000320157 0.00030699 0)
(2.32016e-06 9.10819e-05 0)
(-0.00201735 0.00187283 0)
(-0.00641489 0.00366639 0)
(-0.0125455 0.00490535 0)
(-0.0196946 0.00555951 0)
(-0.0272076 0.00569907 0)
(-0.0344809 0.00537429 0)
(-0.0409349 0.00459274 0)
(-0.0459928 0.00334566 0)
(-0.0490995 0.00165278 0)
(-0.0497861 -0.00039406 0)
(-0.0477627 -0.00260466 0)
(-0.0430285 -0.00468598 0)
(-0.035962 -0.00628116 0)
(-0.0273455 -0.00704333 0)
(-0.0183031 -0.00673944 0)
(-0.0101226 -0.00535666 0)
(-0.00396727 -0.00317975 0)
(-0.000522777 -0.000840862 0)
(0.000244742 0.000614556 0)
(-0.000277756 0.00168012 0)
(-0.00438894 0.00643393 0)
(-0.0118333 0.0106136 0)
(-0.0215348 0.0134383 0)
(-0.0324626 0.014865 0)
(-0.0437269 0.0150113 0)
(-0.0544875 0.0139649 0)
(-0.0639308 0.0117497 0)
(-0.0712586 0.00838106 0)
(-0.0757225 0.00395557 0)
(-0.0767066 -0.0012653 0)
(-0.0738402 -0.00680497 0)
(-0.0671237 -0.0119803 0)
(-0.0570357 -0.0159783 0)
(-0.0445773 -0.0180136 0)
(-0.0312193 -0.0175502 0)
(-0.0187044 -0.0145378 0)
(-0.00869162 -0.00958782 0)
(-0.00231741 -0.00402875 0)
(8.95305e-05 6.75578e-05 0)
(-0.000532075 0.00454736 0)
(-0.00668436 0.0136223 0)
(-0.0170572 0.020832 0)
(-0.0300709 0.0255106 0)
(-0.0443805 0.0277311 0)
(-0.0589219 0.0277022 0)
(-0.0727043 0.0255619 0)
(-0.0847722 0.0213583 0)
(-0.0941904 0.0151461 0)
(-0.10008 0.00712432 0)
(-0.101703 -0.00224088 0)
(-0.0985737 -0.012145 0)
(-0.0906002 -0.0214493 0)
(-0.0782162 -0.0287962 0)
(-0.0624778 -0.0328407 0)
(-0.0450715 -0.0326022 0)
(-0.0281537 -0.0278717 0)
(-0.0139608 -0.0195419 0)
(-0.00428155 -0.00969219 0)
(-3.6585e-05 -0.00145244 0)
(-0.000750414 0.00859496 0)
(-0.00874502 0.0232481 0)
(-0.0217826 0.034045 0)
(-0.03779 0.0407511 0)
(-0.0551302 0.0437269 0)
(-0.0726107 0.0433501 0)
(-0.0891569 0.0398363 0)
(-0.103744 0.0332642 0)
(-0.115361 0.0237248 0)
(-0.123033 0.011508 0)
(-0.125886 -0.00273248 0)
(-0.123255 -0.0178788 0)
(-0.11483 -0.032328 0)
(-0.100836 -0.0441156 0)
(-0.0822176 -0.0511955 0)
(-0.0607606 -0.0519211 0)
(-0.0390407 -0.0456777 0)
(-0.0200372 -0.0334686 0)
(-0.00647899 -0.0181244 0)
(-0.000142576 -0.00399521 0)
(-0.000930139 0.0136672 0)
(-0.0104862 0.0350231 0)
(-0.0258099 0.0499173 0)
(-0.0444015 0.0588152 0)
(-0.0643806 0.0625362 0)
(-0.0844739 0.0617186 0)
(-0.103582 0.056693 0)
(-0.120671 0.0475717 0)
(-0.134709 0.0344575 0)
(-0.144647 0.017683 0)
(-0.149467 -0.00197908 0)
(-0.148252 -0.0231558 0)
(-0.140351 -0.0438299 0)
(-0.12561 -0.0613903 0)
(-0.104654 -0.0729242 0)
(-0.0791985 -0.075808 0)
(-0.0521848 -0.0686154 0)
(-0.0274962 -0.0521253 0)
(-0.00917768 -0.0298635 0)
(-0.000263142 -0.00771318 0)
(-0.00106536 0.0195719 0)
(-0.0118333 0.0485656 0)
(-0.0289581 0.068001 0)
(-0.0496101 0.0792584 0)
(-0.0717309 0.0837694 0)
(-0.0940158 0.0825263 0)
(-0.115395 0.0760169 0)
(-0.134888 0.0643861 0)
(-0.151492 0.0477101 0)
(-0.16413 0.0262876 0)
(-0.171635 0.000903477 0)
(-0.172823 -0.0269474 0)
(-0.166617 -0.0549222 0)
(-0.152305 -0.0797827 0)
(-0.129957 -0.0976074 0)
(-0.100933 -0.104425 0)
(-0.0683367 -0.0974141 0)
(-0.0370026 -0.0765314 0)
(-0.0127302 -0.0457641 0)
(-0.000442676 -0.0129351 0)
(-0.00114849 0.0260776 0)
(-0.0127149 0.0634059 0)
(-0.0310525 0.087732 0)
(-0.0531083 0.101505 0)
(-0.076714 0.106896 0)
(-0.10058 0.105339 0)
(-0.123718 0.0975265 0)
(-0.145259 0.0836379 0)
(-0.164298 0.0636797 0)
(-0.179794 0.0378272 0)
(-0.190506 0.00674156 0)
(-0.195002 -0.028139 0)
(-0.191758 -0.0643081 0)
(-0.179401 -0.0980199 0)
(-0.157188 -0.124298 0)
(-0.125733 -0.137477 0)
(-0.0878621 -0.132606 0)
(-0.0491458 -0.107845 0)
(-0.0175264 -0.0670021 0)
(-0.000736372 -0.0201941 0)
(-0.00117529 0.0329177 0)
(-0.0130838 0.0789941 0)
(-0.0319602 0.108427 0)
(-0.0546269 0.124819 0)
(-0.078866 0.131178 0)
(-0.103443 0.129467 0)
(-0.127498 0.120631 0)
(-0.150332 0.104903 0)
(-0.171218 0.0821874 0)
(-0.189252 0.0524525 0)
(-0.203237 0.0160932 0)
(-0.211616 -0.0256994 0)
(-0.212506 -0.0705094 0)
(-0.203866 -0.114338 0)
(-0.183945 -0.151292 0)
(-0.152159 -0.173831 0)
(-0.110373 -0.174108 0)
(-0.0642524 -0.147082 0)
(-0.0239686 -0.094996 0)
(-0.00122009 -0.0302451 0)
(-0.00115246 0.0398127 0)
(-0.0129566 0.0947323 0)
(-0.0316583 0.129304 0)
(-0.0540311 0.148296 0)
(-0.0778534 0.155635 0)
(-0.101981 0.153888 0)
(-0.125722 0.144325 0)
(-0.14861 0.127262 0)
(-0.170181 0.102501 0)
(-0.189791 0.0697507 0)
(-0.206456 0.0290244 0)
(-0.218692 -0.0189356 0)
(-0.224478 -0.0720881 0)
(-0.221254 -0.126599 0)
(-0.20622 -0.17605 0)
(-0.177215 -0.211178 0)
(-0.134311 -0.220689 0)
(-0.0821135 -0.194637 0)
(-0.0324297 -0.131215 0)
(-0.00200723 -0.0440808 0)
(-0.00110796 0.0465206 0)
(-0.012466 0.110044 0)
(-0.0303239 0.149532 0)
(-0.0514455 0.170893 0)
(-0.0736377 0.179042 0)
(-0.0958872 0.17724 0)
(-0.117719 0.167156 0)
(-0.138952 0.149247 0)
(-0.159467 0.123245 0)
(-0.179006 0.088603 0)
(-0.196983 0.044901 0)
(-0.212217 -0.00770539 0)
(-0.222891 -0.0679873 0)
(-0.226269 -0.13263 0)
(-0.218689 -0.195391 0)
(-0.196291 -0.245912 0)
(-0.1566 -0.269465 0)
(-0.101604 -0.249618 0)
(-0.0431457 -0.176812 0)
(-0.00327132 -0.0629318 0)
(-0.00110616 0.0529216 0)
(-0.011928 0.124485 0)
(-0.0284347 0.168323 0)
(-0.0473803 0.191488 0)
(-0.0666322 0.199988 0)
(-0.0853818 0.197874 0)
(-0.103435 0.187286 0)
(-0.120954 0.168897 0)
(-0.138226 0.142433 0)
(-0.155462 0.107136 0)
(-0.172608 0.0621662 0)
(-0.189164 0.00700733 0)
(-0.20375 -0.058049 0)
(-0.213839 -0.130812 0)
(-0.215547 -0.206044 0)
(-0.203585 -0.273421 0)
(-0.172567 -0.315663 0)
(-0.120276 -0.309098 0)
(-0.0559888 -0.232005 0)
(-0.00526711 -0.088216 0)
(-0.00127413 0.0591526 0)
(-0.0119309 0.137901 0)
(-0.0268684 0.185051 0)
(-0.042825 0.208968 0)
(-0.0577907 0.216959 0)
(-0.0713115 0.21396 0)
(-0.0835846 0.202647 0)
(-0.0951826 0.183957 0)
(-0.106835 0.157679 0)
(-0.119268 0.122931 0)
(-0.133039 0.0785316 0)
(-0.14835 0.0233347 0)
(-0.164672 -0.0432712 0)
(-0.18029 -0.12069 0)
(-0.191709 -0.205491 0)
(-0.193037 -0.288882 0)
(-0.176336 -0.352928 0)
(-0.134119 -0.367591 0)
(-0.0700801 -0.295206 0)
(-0.00832684 -0.121371 0)
(-0.00185016 0.0658129 0)
(-0.0134626 0.150601 0)
(-0.0269809 0.199331 0)
(-0.0392446 0.22227 0)
(-0.0485232 0.22839 0)
(-0.0550026 0.223601 0)
(-0.0594507 0.211108 0)
(-0.0629332 0.192113 0)
(-0.0666352 0.166499 0)
(-0.0717637 0.133346 0)
(-0.079454 0.0912738 0)
(-0.0906334 0.0386835 0)
(-0.105744 -0.0259262 0)
(-0.124269 -0.10346 0)
(-0.143936 -0.192878 0)
(-0.159474 -0.28844 0)
(-0.161642 -0.374306 0)
(-0.137671 -0.41713 0)
(-0.0832658 -0.362062 0)
(-0.0127828 -0.163484 0)
(-0.00328716 0.0743263 0)
(-0.0180885 0.163567 0)
(-0.0305723 0.211055 0)
(-0.0382967 0.23034 0)
(-0.040189 0.232639 0)
(-0.0375686 0.224848 0)
(-0.0320331 0.21057 0)
(-0.0252379 0.191157 0)
(-0.0188111 0.166546 0)
(-0.0143588 0.135818 0)
(-0.0134715 0.097514 0)
(-0.0176842 0.0498137 0)
(-0.0283443 -0.00933318 0)
(-0.0462638 -0.08202 0)
(-0.0710038 -0.169577 0)
(-0.0992608 -0.270364 0)
(-0.122607 -0.373666 0)
(-0.124384 -0.448085 0)
(-0.0915538 -0.42464 0)
(-0.0187138 -0.214575 0)
(-0.00636454 0.0873924 0)
(-0.0280183 0.178246 0)
(-0.0392953 0.219849 0)
(-0.0405999 0.231566 0)
(-0.0323548 0.227538 0)
(-0.0177972 0.215396 0)
(0.000334605 0.198779 0)
(0.0197201 0.178919 0)
(0.0383452 0.155667 0)
(0.0543321 0.128079 0)
(0.0658074 0.0947108 0)
(0.0708364 0.0537386 0)
(0.0673849 0.00297458 0)
(0.0534948 -0.060256 0)
(0.0276352 -0.138962 0)
(-0.00979552 -0.235618 0)
(-0.0537852 -0.347012 0)
(-0.0866283 -0.450312 0)
(-0.0885253 -0.470838 0)
(-0.025308 -0.272256 0)
(-0.0125251 0.110609 0)
(-0.0452246 0.196702 0)
(-0.0514638 0.224527 0)
(-0.040893 0.223104 0)
(-0.0170617 0.209815 0)
(0.0138995 0.19218 0)
(0.0479817 0.173095 0)
(0.0823436 0.153184 0)
(0.11481 0.131967 0)
(0.143474 0.108396 0)
(0.166422 0.0810895 0)
(0.181584 0.0483927 0)
(0.186538 0.00833224 0)
(0.178615 -0.0416832 0)
(0.154735 -0.105184 0)
(0.112443 -0.18748 0)
(0.051188 -0.293349 0)
(-0.0143262 -0.414482 0)
(-0.0643391 -0.485115 0)
(-0.0295911 -0.330456 0)
(-0.0216113 0.148419 0)
(-0.0652309 0.213121 0)
(-0.0494003 0.215063 0)
(-0.0130442 0.195081 0)
(0.035869 0.171603 0)
(0.0887104 0.149592 0)
(0.141246 0.129838 0)
(0.191032 0.11175 0)
(0.236435 0.0943058 0)
(0.276037 0.0763388 0)
(0.308294 0.0566111 0)
(0.331368 0.033792 0)
(0.342818 0.00635458 0)
(0.339836 -0.027655 0)
(0.318507 -0.0712302 0)
(0.274647 -0.130261 0)
(0.202164 -0.214986 0)
(0.107935 -0.334972 0)
(-0.0032089 -0.45146 0)
(-0.0232658 -0.378733 0)
(-0.0274718 0.229338 0)
(-0.0364925 0.223121 0)
(0.0465595 0.17695 0)
(0.127042 0.138738 0)
(0.205592 0.109496 0)
(0.277474 0.0878717 0)
(0.341772 0.0715744 0)
(0.398462 0.0585793 0)
(0.447597 0.0473857 0)
(0.488935 0.0368466 0)
(0.521776 0.0260124 0)
(0.544906 0.014026 0)
(0.556383 8.77538e-06 0)
(0.553877 -0.0170336 0)
(0.533356 -0.0390853 0)
(0.490583 -0.0704539 0)
(0.415318 -0.120933 0)
(0.304902 -0.213375 0)
(0.125879 -0.348318 0)
(0.0236675 -0.37879 0)
(0.21444 0.135798 0)
(0.285138 0.0984502 0)
(0.444657 0.0569155 0)
(0.547914 0.0365839 0)
(0.621661 0.0241687 0)
(0.678245 0.0163202 0)
(0.722817 0.0113356 0)
(0.758406 0.00800659 0)
(0.786845 0.00557323 0)
(0.809028 0.00357138 0)
(0.825141 0.0016944 0)
(0.834857 -0.00027095 0)
(0.837309 -0.00250634 0)
(0.831188 -0.00505082 0)
(0.813547 -0.0085022 0)
(0.781941 -0.0135055 0)
(0.724081 -0.0231769 0)
(0.635276 -0.0406017 0)
(0.43131 -0.0912949 0)
(0.270899 -0.153523 0)
)
;

boundaryField
{
    movingWall
    {
        type            calculated;
        value           uniform (1 0 0);
    }
    fixedWalls
    {
        type            calculated;
        value           uniform (0 0 0);
    }
    frontAndBack
    {
        type            empty;
    }
}


// ************************************************************************* //
