/*--------------------------------*- C++ -*----------------------------------*\
  =========                 |
  \\      /  F ield         | OpenFOAM: The Open Source CFD Toolbox
   \\    /   O peration     | Website:  https://openfoam.org
    \\  /    A nd           | Version:  13
     \\/     M anipulation  |
\*---------------------------------------------------------------------------*/
FoamFile
{
    format      ascii;
    class       volScalarField;
    location    "39";
    object      p;
}
// * * * * * * * * * * * * * * * * * * * * * * * * * * * * * * * * * * * * * //

dimensions      [0 2 -2 0 0 0 0];

internalField   nonuniform List<scalar> 
400
(
6.1686e-08
-0.000572472
-0.00121607
-0.00171894
-0.00195928
-0.00188476
-0.00147055
-0.000705598
0.000401225
0.00180588
0.00341461
0.00507494
0.00659097
0.00775103
0.00837973
0.00839556
0.00785527
0.00696884
0.00604795
0.00549427
0.000569899
-2.03777e-05
-0.000569752
-0.000957111
-0.00113209
-0.00106206
-0.000726057
-0.000109318
0.000788698
0.00193938
0.00326971
0.00466005
0.00594063
0.00692974
0.00747418
0.00750172
0.00705915
0.00631878
0.0055432
0.00497257
0.00124565
0.000492912
-8.67941e-05
-0.000441439
-0.000606225
-0.00057637
-0.00033736
0.000132511
0.000849617
0.00180681
0.00295478
0.00419172
0.00536437
0.00629375
0.00681919
0.00685284
0.00642069
0.00566812
0.00480888
0.00403712
0.00174054
0.000763637
7.35921e-05
-0.000322015
-0.000537195
-0.00059281
-0.000478311
-0.000160238
0.000399952
0.00122201
0.00228162
0.0034928
0.00470165
0.00570968
0.00631935
0.00639811
0.00593346
0.00505052
0.00394835
0.00284438
0.00179542
0.000595683
-0.000227755
-0.000704891
-0.00101821
-0.0012073
-0.00125943
-0.00112307
-0.000730566
-2.78899e-05
0.000991698
0.00226355
0.00363002
0.00486121
0.00569864
0.00593229
0.00548037
0.00443545
0.0029999
0.00146205
0.00119465
-0.000203063
-0.00116333
-0.00175275
-0.00221147
-0.00259072
-0.00286932
-0.00297126
-0.00279198
-0.00223297
-0.0012441
0.000150487
0.00179282
0.00341981
0.0046902
0.00527471
0.00497188
0.00380565
0.00197898
-0.000104078
-0.000241666
-0.00180013
-0.00289228
-0.00362225
-0.00427774
-0.00491667
-0.00550511
-0.00593758
-0.0060646
-0.00572848
-0.00480695
-0.0032852
-0.00127036
0.000946672
0.00292627
0.00416984
0.00427924
0.00313553
0.000902589
-0.00185628
-0.00265197
-0.00432638
-0.00554127
-0.0064393
-0.00734713
-0.00832775
-0.00933391
-0.0102288
-0.0108113
-0.0108505
-0.0101336
-0.00853902
-0.00610708
-0.00311227
-8.64454e-05
0.00225502
0.00321264
0.00239526
-0.000177388
-0.00375298
-0.00612137
-0.00786172
-0.00918475
-0.0102718
-0.011483
-0.0128893
-0.0144344
-0.0159529
-0.0171896
-0.0178277
-0.0175354
-0.0160428
-0.0132531
-0.00935753
-0.00493605
-0.000941433
0.00150806
0.00155456
-0.00113717
-0.00564682
-0.0106715
-0.0124237
-0.0138275
-0.015102
-0.0166422
-0.0185358
-0.0207271
-0.0230305
-0.0251404
-0.0266492
-0.0270841
-0.0259776
-0.0230343
-0.0182541
-0.0121678
-0.00592217
-0.00114232
0.000602996
-0.00173142
-0.00719518
-0.0162605
-0.0179653
-0.0193957
-0.0208062
-0.0226415
-0.0250234
-0.0279113
-0.0311115
-0.0342775
-0.0369139
-0.0383953
-0.0380067
-0.0352841
-0.0298336
-0.0220052
-0.0130064
-0.00495985
-0.000375602
-0.00151606
-0.00772071
-0.0228029
-0.02439
-0.0257427
-0.0271484
-0.0291435
-0.0319106
-0.0354424
-0.0395494
-0.0438549
-0.0477846
-0.05058
-0.0513772
-0.0491634
-0.043394
-0.0339889
-0.0219777
-0.00980597
-0.00102481
0.000280006
-0.00600004
-0.0302225
-0.0315862
-0.0326696
-0.033792
-0.0356681
-0.0385799
-0.042569
-0.047455
-0.0528343
-0.0580627
-0.0622511
-0.0643106
-0.0630223
-0.057332
-0.0466929
-0.031705
-0.0148011
-0.000417115
0.00496556
2.2765e-05
-0.03856
-0.0394894
-0.0399612
-0.0403269
-0.041635
-0.0443096
-0.0484456
-0.0538593
-0.0601059
-0.0664654
-0.0719294
-0.0752215
-0.0748704
-0.0694214
-0.057807
-0.0400021
-0.0180233
0.0032795
0.0146985
0.0135557
-0.0481748
-0.048157
-0.0474035
-0.0462841
-0.046412
-0.0483712
-0.0522815
-0.0579131
-0.0647394
-0.0719354
-0.0783607
-0.0825613
-0.0828322
-0.0773738
-0.0646453
-0.043937
-0.0165435
0.0130188
0.032931
0.0392807
-0.060235
-0.0579577
-0.0548672
-0.0512135
-0.0494272
-0.0501784
-0.0535203
-0.0590937
-0.0662201
-0.0739188
-0.0808795
-0.0854534
-0.085707
-0.0795199
-0.064942
-0.0406113
-0.00697889
0.0328168
0.0647937
0.0836768
-0.0774814
-0.0694732
-0.0620875
-0.0545495
-0.050139
-0.0493251
-0.0519045
-0.0572611
-0.0644862
-0.072385
-0.07944
-0.0837784
-0.0832185
-0.075283
-0.0576214
-0.0282113
0.0133524
0.066661
0.115752
0.154807
-0.108926
-0.0850401
-0.0697734
-0.0563916
-0.0485411
-0.0458812
-0.0476243
-0.0527151
-0.0599172
-0.0677771
-0.0745524
-0.0781401
-0.0761044
-0.0655426
-0.0436433
-0.00744512
0.0447431
0.114933
0.188078
0.263281
-0.168693
-0.100746
-0.0730932
-0.0522882
-0.0413103
-0.0376998
-0.0394421
-0.0448655
-0.0524158
-0.060447
-0.067074
-0.0700479
-0.0666876
-0.0537884
-0.0278899
0.0154098
0.0800715
0.17276
0.285855
0.445985
-0.402754
-0.139031
-0.0734592
-0.0447302
-0.0305719
-0.0266176
-0.0290856
-0.0353735
-0.0436541
-0.0522074
-0.0591241
-0.0621456
-0.0586176
-0.0452141
-0.0174509
0.0310786
0.108496
0.236657
0.427487
0.79368
)
;

boundaryField
{
    movingWall
    {
        type            zeroGradient;
    }
    fixedWalls
    {
        type            zeroGradient;
    }
    frontAndBack
    {
        type            empty;
    }
}


// ************************************************************************* //
