/*--------------------------------*- C++ -*----------------------------------*\
  =========                 |
  \\      /  F ield         | OpenFOAM: The Open Source CFD Toolbox
   \\    /   O peration     | Website:  https://openfoam.org
    \\  /    A nd           | Version:  13
     \\/     M anipulation  |
\*---------------------------------------------------------------------------*/
FoamFile
{
    format      ascii;
    class       volScalarField;
    location    "9";
    object      p;
}
// * * * * * * * * * * * * * * * * * * * * * * * * * * * * * * * * * * * * * //

dimensions      [0 2 -2 0 0 0 0];

internalField   nonuniform List<scalar> 
400
(
2.89063e-08
-0.000552217
-0.00116319
-0.0016312
-0.00183794
-0.00173368
-0.00129597
-0.000516121
0.000595379
0.00199466
0.00359054
0.00523592
0.00674154
0.00790237
0.00854717
0.00859414
0.00809463
0.00725102
0.00635753
0.00581642
0.000548465
-2.02557e-05
-0.000541414
-0.000898202
-0.00104159
-0.000940613
-0.000576623
6.2429e-05
0.000974727
0.00213078
0.00345892
0.00484336
0.00612
0.00711306
0.00767323
0.00772839
0.00732086
0.00661558
0.00586469
0.00530604
0.00118954
0.000466202
-8.38012e-05
-0.000408379
-0.000540224
-0.000475097
-0.000200799
0.00030085
0.00104264
0.00201514
0.00316906
0.00440584
0.00557727
0.00651067
0.00704997
0.00710837
0.00670847
0.00598909
0.00515585
0.00439956
0.00165206
0.00071349
5.76881e-05
-0.000304739
-0.000481609
-0.000493518
-0.000332726
2.93828e-05
0.000626074
0.00147318
0.00254489
0.00375818
0.00496412
0.00597169
0.00658964
0.00668833
0.00625348
0.0054044
0.00433285
0.00325196
0.00168975
0.000536139
-0.000247717
-0.000685911
-0.000951708
-0.00108427
-0.00107474
-0.000878266
-0.000434515
0.000304576
0.00134194
0.00261639
0.00397439
0.0051953
0.00602933
0.00627244
0.00584388
0.00483199
0.00343217
0.00192627
0.0010987
-0.000247869
-0.00116346
-0.00170598
-0.00210433
-0.00240986
-0.00260692
-0.00262844
-0.00237974
-0.00177127
-0.000762351
0.00063901
0.00226487
0.00386604
0.00511351
0.00568846
0.00539508
0.00425615
0.00246841
0.000426211
-0.000292659
-0.00179874
-0.002842
-0.00351538
-0.00409457
-0.00463871
-0.00512146
-0.00544881
-0.00548406
-0.00508023
-0.0041175
-0.00260002
-0.000613879
0.00155609
0.00348478
0.00468923
0.00478349
0.0036529
0.00145738
-0.00125315
-0.00261947
-0.00424452
-0.00540775
-0.00623856
-0.00705222
-0.00791448
-0.00878798
-0.00955003
-0.0100153
-0.0099671
-0.00920189
-0.00760477
-0.00521122
-0.00228667
0.000654374
0.00291738
0.00382316
0.00299322
0.000448589
-0.00307463
-0.0059696
-0.00766805
-0.00893876
-0.00994842
-0.0110476
-0.0123118
-0.0136969
-0.0150543
-0.0161473
-0.0166762
-0.0163219
-0.0148226
-0.0120795
-0.00827589
-0.00397373
-0.000101866
0.00224932
0.00224514
-0.000438829
-0.00489822
-0.0103738
-0.0120958
-0.0134498
-0.0146393
-0.0160524
-0.0177833
-0.0197907
-0.0219082
-0.0238517
-0.0252324
-0.0255924
-0.0244779
-0.0215861
-0.016914
-0.0109744
-0.00489097
-0.000257201
0.00139104
-0.000967548
-0.00639245
-0.0158046
-0.017495
-0.0188824
-0.0202056
-0.0219053
-0.0241109
-0.0267986
-0.0297966
-0.0327826
-0.0352823
-0.0366885
-0.0363175
-0.0336306
-0.0282934
-0.0206251
-0.0118115
-0.00394611
0.000497676
-0.000706299
-0.00689518
-0.0221943
-0.0237859
-0.0251081
-0.0264325
-0.028293
-0.0308806
-0.0342062
-0.0381056
-0.0422291
-0.0460268
-0.0487539
-0.0495321
-0.047413
-0.0417712
-0.0325306
-0.0207064
-0.00872504
-0.000108494
0.00109749
-0.0052008
-0.0294851
-0.0308743
-0.0319465
-0.0330039
-0.0347581
-0.0374981
-0.0412857
-0.0459694
-0.0511765
-0.0562904
-0.0604387
-0.0625298
-0.0613406
-0.0557917
-0.0453171
-0.030501
-0.013767
0.000461066
0.00572934
0.00073059
-0.0377349
-0.0387113
-0.039198
-0.039526
-0.0407357
-0.0432548
-0.0472
-0.0524212
-0.0585098
-0.064777
-0.070232
-0.0735974
-0.0733848
-0.0681097
-0.0566725
-0.0390257
-0.0171803
0.00400639
0.0153256
0.0141001
-0.0473185
-0.0473674
-0.0466607
-0.0455404
-0.0456003
-0.0474227
-0.0511514
-0.0565969
-0.063275
-0.0703971
-0.0768421
-0.0811556
-0.0816108
-0.0763709
-0.0638505
-0.0433051
-0.0160177
0.0134785
0.0333313
0.0395993
-0.0594167
-0.0572233
-0.0542145
-0.050601
-0.0487758
-0.0494027
-0.0525625
-0.057946
-0.0649221
-0.0725533
-0.0795517
-0.0842683
-0.0847458
-0.0788204
-0.0644922
-0.0403504
-0.00682516
0.0329391
0.064903
0.0837361
-0.0767788
-0.0688682
-0.0615985
-0.0541369
-0.0497054
-0.0487646
-0.0511495
-0.0562985
-0.0633602
-0.0711849
-0.07828
-0.0827731
-0.0824579
-0.0748163
-0.0574399
-0.0282549
0.0131712
0.0664761
0.115575
0.154618
-0.108401
-0.08462
-0.0694971
-0.0562114
-0.0483387
-0.0455374
-0.0470646
-0.0519266
-0.0589473
-0.0667192
-0.0735248
-0.0772616
-0.0754675
-0.0652082
-0.0436093
-0.00765727
0.0443781
0.114526
0.187694
0.262896
-0.168336
-0.100475
-0.0729872
-0.0522819
-0.0412787
-0.0375184
-0.0390343
-0.0442176
-0.0515733
-0.0595006
-0.0661399
-0.0692449
-0.066123
-0.0534912
-0.0278815
0.0151706
0.0796668
0.172286
0.285376
0.445534
-0.402407
-0.138794
-0.0733986
-0.0447861
-0.030614
-0.0265194
-0.0287674
-0.0348157
-0.0428947
-0.0513289
-0.058234
-0.0613544
-0.058015
-0.0448827
-0.0173936
0.0308976
0.108146
0.236226
0.42704
0.793249
)
;

boundaryField
{
    movingWall
    {
        type            zeroGradient;
    }
    fixedWalls
    {
        type            zeroGradient;
    }
    frontAndBack
    {
        type            empty;
    }
}


// ************************************************************************* //
