/*--------------------------------*- C++ -*----------------------------------*\
  =========                 |
  \\      /  F ield         | OpenFOAM: The Open Source CFD Toolbox
   \\    /   O peration     | Website:  https://openfoam.org
    \\  /    A nd           | Version:  13
     \\/     M anipulation  |
\*---------------------------------------------------------------------------*/
FoamFile
{
    format      ascii;
    class       surfaceScalarField;
    location    "9";
    object      phi;
}
// * * * * * * * * * * * * * * * * * * * * * * * * * * * * * * * * * * * * * //

dimensions      [0 3 -1 0 0 0 0];

internalField   nonuniform List<scalar> 
760
(
3.66844e-06
-3.66812e-06
-3.89224e-05
4.25908e-05
-0.00012865
8.97278e-05
-0.000250404
0.000121754
-0.000388943
0.000138539
-0.000531291
0.000142347
-0.000665962
0.000134671
-0.000781671
0.000115709
-0.000866753
8.50827e-05
-0.000909802
4.30489e-05
-0.000901398
-8.40455e-06
-0.000836907
-6.44908e-05
-0.000719041
-0.000117866
-0.000559847
-0.000159194
-0.000380598
-0.000179249
-0.00020895
-0.000171648
-7.32567e-05
-0.000135693
5.23567e-06
-7.84923e-05
2.23235e-05
-1.70878e-05
2.23235e-05
-4.59996e-05
4.23314e-05
-0.000204117
0.000200709
-0.000459473
0.000345084
-0.00078081
0.00044309
-0.0011355
0.000493229
-0.00149331
0.000500154
-0.00182592
0.000467286
-0.00210564
0.000395423
-0.0023052
0.000284652
-0.00239974
0.000137581
-0.00237063
-3.75131e-05
-0.00221005
-0.000225065
-0.00192653
-0.000401393
-0.00154745
-0.000538269
-0.00111866
-0.000608036
-0.000698727
-0.000591586
-0.000347674
-0.000486746
-0.000111614
-0.000314552
-6.84751e-06
-0.000121855
1.54761e-05
-0.000107699
0.00015003
-0.00039134
0.000484349
-0.000805749
0.000759493
-0.00130352
0.000940865
-0.00183966
0.00102936
-0.00237245
0.00103295
-0.00286229
0.000957118
-0.00327042
0.000803556
-0.00355946
0.000573695
-0.00369608
0.000274201
-0.00365576
-7.78367e-05
-0.00342852
-0.000452305
-0.00302496
-0.000804953
-0.00248009
-0.00108313
-0.00185348
-0.00123465
-0.00122326
-0.0012218
-0.000672819
-0.00103719
-0.00027117
-0.000716201
-5.22945e-05
-0.000340731
-3.68183e-05
-0.000166634
0.000316664
-0.000571533
0.000889249
-0.00113605
0.00132401
-0.00179474
0.00159956
-0.00249179
0.00172641
-0.00317753
0.0017187
-0.00380527
0.00158485
-0.00432939
0.00132768
-0.0047058
0.0009501
-0.00489468
0.000463086
-0.00486544
-0.000107076
-0.00460272
-0.00071503
-0.00411359
-0.00129408
-0.00343327
-0.00176345
-0.00262802
-0.0020399
-0.00179152
-0.00205831
-0.00103164
-0.00179706
-0.000447199
-0.00130065
-0.000100801
-0.000687128
-0.000137619
-0.000219408
0.000536072
-0.000734709
0.00140455
-0.00143601
0.0020253
-0.0022404
0.00240395
-0.00308277
0.00256878
-0.00390816
0.00254409
-0.00466605
0.00234274
-0.00530711
0.00196874
-0.00578272
0.00142571
-0.00604706
0.000727426
-0.00606163
-9.25062e-05
-0.00580091
-0.000975747
-0.0052616
-0.00183339
-0.00447111
-0.00255393
-0.00349556
-0.00301546
-0.0024416
-0.00311226
-0.001446
-0.00279267
-0.000648548
-0.0020981
-0.000153984
-0.00118169
-0.000291603
-0.000264369
0.000800441
-0.000874913
0.00201509
-0.00169521
0.0028456
-0.00262738
0.00333612
-0.00359912
0.00354052
-0.0045527
0.00349767
-0.00543663
0.00322667
-0.00620054
0.00273265
-0.00679315
0.00201832
-0.00716279
0.00109706
-0.00726167
6.3789e-06
-0.00704852
-0.0011889
-0.00650298
-0.00237894
-0.00563531
-0.00342161
-0.0045023
-0.00414847
-0.00321819
-0.00439637
-0.00195153
-0.00405932
-0.000896558
-0.00315307
-0.000219121
-0.00185913
-0.000510724
-0.000299883
0.00110032
-0.000986562
0.00270177
-0.00190307
0.0037621
-0.00294002
0.00437307
-0.00402046
0.00462097
-0.00508642
0.00456362
-0.00608817
0.00422842
-0.0069771
0.00362158
-0.00770159
0.00274282
-0.00820573
0.0016012
-0.00842935
0.000229998
-0.00831687
-0.00130137
-0.00782192
-0.00287388
-0.00692779
-0.00431574
-0.0056691
-0.00540716
-0.00415582
-0.00590965
-0.0025848
-0.00563034
-0.00121694
-0.00452093
-0.000305682
-0.00277039
-0.000816406
-0.0003242
0.00142452
-0.00106394
0.00344152
-0.00204824
0.0047464
-0.0031599
0.00548473
-0.00431984
0.00578091
-0.0054722
0.00571598
-0.00657178
0.005328
-0.0075748
0.0046246
-0.00843261
0.00360064
-0.00908788
0.00225647
-0.00947312
0.000615243
-0.00951418
-0.00126032
-0.00913804
-0.00325002
-0.00829147
-0.0051623
-0.00697076
-0.00672787
-0.00526101
-0.0076194
-0.00337167
-0.00751968
-0.00163482
-0.00625779
-0.000424289
-0.00398092
-0.0012407
-0.000336078
0.0017606
-0.00110258
0.00420802
-0.00212074
0.00576457
-0.00326875
0.00663273
-0.00446759
0.00697975
-0.00566566
0.00691404
-0.00682491
0.00648725
-0.00790992
0.00570961
-0.00887953
0.00457025
-0.00968055
0.00305748
-0.0102435
0.00117818
-0.0104818
-0.00102202
-0.010297
-0.00343482
-0.00959424
-0.00586505
-0.00831524
-0.00800687
-0.00649185
-0.00944279
-0.00431355
-0.00969798
-0.00216972
-0.00840162
-0.000586479
-0.00556416
-0.00182717
-0.000335912
0.00209651
-0.00110187
0.00497397
-0.00211595
0.00677865
-0.0032539
0.00777068
-0.00443851
0.00816435
-0.00562434
0.00809988
-0.00678308
0.007646
-0.00789133
0.00681786
-0.00892072
0.00559963
-0.00982953
0.00396629
-0.0105555
0.00190411
-0.0110099
-0.000567616
-0.011078
-0.00336666
-0.0106259
-0.00631718
-0.0095299
-0.00910286
-0.00773795
-0.0112347
-0.00536986
-0.0120661
-0.00282793
-0.0109435
-0.000804336
-0.00758775
-0.00263151
-0.000327296
0.00242381
-0.0010687
0.00571537
-0.00204009
0.00775005
-0.00311555
0.00884614
-0.00422141
0.00927021
-0.00532055
0.00919902
-0.00639696
0.00872241
-0.00744277
0.00786367
-0.00844762
0.00660448
-0.0093891
0.00490777
-0.0102233
0.00273833
-0.0108728
8.18481e-05
-0.0112245
-0.00301497
-0.0111174
-0.00642429
-0.0103648
-0.00985542
-0.00880796
-0.0127916
-0.00643844
-0.0144356
-0.00359004
-0.0137919
-0.00108895
-0.0100888
-0.00372046
-0.00031913
0.00274294
-0.00102173
0.00641797
-0.00191603
0.00864435
-0.00287405
0.00980417
-0.00382849
0.0102246
-0.00475389
0.0101244
-0.0056496
0.00961811
-0.00652635
0.00874041
-0.00739581
0.00747395
-0.00826112
0.00577308
-0.00910622
0.00358343
-0.00988481
0.00086043
-0.010498
-0.00240174
-0.0107874
-0.00613491
-0.0105227
-0.0101201
-0.00943616
-0.0138781
-0.00734168
-0.0165301
-0.00439381
-0.0167398
-0.00144629
-0.0130364
-0.00516675
-0.000328673
0.00307161
-0.00099624
0.00708554
-0.00178843
0.00943654
-0.00257475
0.0105905
-0.00330048
0.0109504
-0.00395804
0.010782
-0.00456646
0.0102265
-0.00515776
0.00933171
-0.00576769
0.00808388
-0.00642785
0.00643324
-0.00715634
0.00431193
-0.00794504
0.00164913
-0.00873775
-0.00160903
-0.00940538
-0.00546728
-0.00971365
-0.00981187
-0.00931522
-0.0142765
-0.00782858
-0.0180167
-0.00511621
-0.0194522
-0.00186866
-0.0162839
-0.00703542
-0.000386383
0.003458
-0.00104934
0.0077485
-0.00172565
0.0101128
-0.00228594
0.0111508
-0.00270122
0.0113656
-0.00299287
0.0110736
-0.00320601
0.0104397
-0.00339636
0.00952205
-0.00362344
0.00831097
-0.00394591
0.0067557
-0.00441552
0.00478154
-0.00506713
0.00230074
-0.00589967
-0.000776491
-0.00684468
-0.00452228
-0.00771518
-0.00894137
-0.00814691
-0.0138448
-0.0075973
-0.0185663
-0.00556183
-0.0214877
-0.00232046
-0.0195253
-0.00935587
-0.000544308
0.0040023
-0.00126327
0.00846746
-0.00181156
0.0106611
-0.00207865
0.0114179
-0.00208729
0.0113743
-0.00190557
0.0108919
-0.00161346
0.0101476
-0.00129242
0.00920102
-0.00102344
0.00804199
-0.000887219
0.00661948
-0.000962989
0.00485731
-0.00132414
0.0026619
-0.00202669
-7.39383e-05
-0.00308158
-0.00346739
-0.00439852
-0.00762444
-0.00568268
-0.0125606
-0.00632578
-0.0179232
-0.0054607
-0.0223527
-0.00271707
-0.0222689
-0.0120729
-0.000883979
0.00488628
-0.00173108
0.00931455
-0.00209877
0.0110288
-0.00195115
0.0112702
-0.00141055
0.0108337
-0.000617315
0.0100987
0.000304151
0.0092261
0.00124675
0.00825842
0.00211267
0.00717606
0.00280691
0.00592524
0.00323224
0.00443197
0.00328744
0.00260669
0.00286936
0.000344144
0.00188969
-0.00248771
0.000314839
-0.00604959
-0.00171527
-0.0105305
-0.00367728
-0.0159612
-0.00445832
-0.0215717
-0.00289382
-0.0238334
-0.0149668
-0.00150684
0.00639312
-0.00245087
0.0102586
-0.00240638
0.0109844
-0.00156406
0.0104279
-0.000223539
0.00949316
0.00137805
0.00849709
0.00307228
0.00753187
0.00473531
0.00659539
0.00626512
0.00564626
0.00756506
0.00462529
0.00853331
0.00346373
0.00905571
0.00208429
0.00900004
0.000399806
0.0082223
-0.00170997
0.00657565
-0.00440293
0.00400066
-0.00795555
0.000775217
-0.0127358
-0.00204606
-0.0187504
-0.00251775
-0.0233617
-0.0174845
-0.00234563
0.00873875
-0.00284085
0.0107538
-0.00163241
0.00977592
0.000495995
0.00829951
0.00301249
0.00697667
0.00562214
0.00588745
0.00816142
0.00499258
0.0105309
0.00422591
0.0126551
0.00352211
0.0144594
0.00282098
0.0158572
0.00206588
0.0167408
0.00120071
0.016972
0.000168651
0.0163854
-0.00112344
0.0147652
-0.00278272
0.0118751
-0.0050654
0.00760396
-0.00846467
0.00258191
-0.0137284
-0.000921732
-0.0198581
-0.0184063
-0.00199922
0.010738
0.000358329
0.00839625
0.00430764
0.00582661
0.00830242
0.00430473
0.0120364
0.0032427
0.0154151
0.00250871
0.0184196
0.00198816
0.0210527
0.00159273
0.0233108
0.00126407
0.0251702
0.000961588
0.0265819
0.000654167
0.0274656
0.000316999
0.027708
-7.38069e-05
0.0271572
-0.000572563
0.0255875
-0.00121304
0.022668
-0.00214589
0.0179315
-0.00372817
0.0109367
-0.00673356
0.00301859
-0.01194
-0.0153877
0.010738
0.0191342
0.0249608
0.0292656
0.0325083
0.035017
0.0370051
0.0385979
0.0398619
0.0408235
0.0414777
0.0417947
0.0417209
0.0411483
0.0399353
0.0377894
0.0340612
0.0273277
0.0153877
)
;

boundaryField
{
    movingWall
    {
        type            calculated;
        value           uniform 0;
    }
    fixedWalls
    {
        type            calculated;
        value           uniform 0;
    }
    frontAndBack
    {
        type            empty;
    }
}


// ************************************************************************* //
