/*--------------------------------*- C++ -*----------------------------------*\
  =========                 |
  \\      /  F ield         | OpenFOAM: The Open Source CFD Toolbox
   \\    /   O peration     | Website:  https://openfoam.org
    \\  /    A nd           | Version:  13
     \\/     M anipulation  |
\*---------------------------------------------------------------------------*/
FoamFile
{
    format      ascii;
    class       surfaceScalarField;
    location    "9";
    object      phi_0;
}
// * * * * * * * * * * * * * * * * * * * * * * * * * * * * * * * * * * * * * //

dimensions      [0 3 -1 0 0 0 0];

internalField   nonuniform List<scalar> 
760
(
3.66284e-06
-3.66722e-06
-3.89235e-05
4.25863e-05
-0.00012864
8.97164e-05
-0.000250377
0.000121737
-0.000388896
0.000138519
-0.000531223
0.000142326
-0.000665874
0.000134652
-0.000781567
0.000115692
-0.000866638
8.50719e-05
-0.000909684
4.30456e-05
-0.000901285
-8.39904e-06
-0.000836809
-6.44764e-05
-0.000718964
-0.000117845
-0.000559796
-0.000159168
-0.000380572
-0.000179224
-0.000208944
-0.000171628
-7.32639e-05
-0.00013568
5.22514e-06
-7.84891e-05
2.23177e-05
-1.70926e-05
2.23176e-05
-4.59957e-05
4.23284e-05
-0.000204092
0.000200682
-0.00045941
0.000345034
-0.000780697
0.000443024
-0.00113533
0.000493155
-0.00149308
0.000500078
-0.00182565
0.000467218
-0.00210533
0.000395368
-0.00230487
0.000284618
-0.0023994
0.000137575
-0.00237031
-3.749e-05
-0.00220977
-0.000225013
-0.0019263
-0.000401318
-0.00154729
-0.000538181
-0.00111856
-0.000607949
-0.000698678
-0.000591513
-0.000347661
-0.000486697
-0.000111619
-0.000314532
-6.85294e-06
-0.000121859
1.54647e-05
-0.000107682
0.000150011
-0.000391278
0.000484278
-0.00080562
0.000759376
-0.00130331
0.000940718
-0.00183936
0.00102921
-0.00237208
0.00103279
-0.00286184
0.000956978
-0.00326992
0.000803448
-0.00355893
0.000573633
-0.00369555
0.000274194
-0.00365526
-7.77852e-05
-0.00342807
-0.000452198
-0.00302459
-0.000804801
-0.00247981
-0.00108296
-0.00185329
-0.00123447
-0.00122315
-0.00122165
-0.000672771
-0.00103708
-0.000271158
-0.000716145
-5.22953e-05
-0.000340722
-3.68305e-05
-0.000166605
0.000316616
-0.000571434
0.000889107
-0.00113585
0.00132379
-0.00179443
0.0015993
-0.00249137
0.00172614
-0.00317702
0.00171844
-0.00380467
0.00158463
-0.00432873
0.00132751
-0.0047051
0.000950006
-0.00489399
0.00046308
-0.00486479
-0.00010699
-0.00460213
-0.000714856
-0.00411309
-0.00129384
-0.00343288
-0.00176316
-0.00262774
-0.00203961
-0.00179134
-0.00205805
-0.00103155
-0.00179687
-0.000447165
-0.00130053
-0.000100796
-0.000687091
-0.000137626
-0.000219368
0.000535984
-0.000734579
0.00140432
-0.00143576
0.00202497
-0.00224002
0.00240357
-0.00308226
0.00256838
-0.00390754
0.00254371
-0.00466533
0.00234242
-0.00530633
0.0019685
-0.00578191
0.00142559
-0.00604625
0.000727423
-0.00606085
-9.23833e-05
-0.00580021
-0.000975504
-0.00526099
-0.00183306
-0.00447062
-0.00255353
-0.00349519
-0.00301504
-0.00244136
-0.00311188
-0.00144586
-0.00279237
-0.000648492
-0.0020979
-0.000153972
-0.00118161
-0.000291598
-0.000264323
0.000800307
-0.000874763
0.00201476
-0.00169493
0.00284514
-0.00262696
0.0033356
-0.00359856
0.00353999
-0.00455202
0.00349717
-0.00543585
0.00322626
-0.0061997
0.00273235
-0.00679228
0.00201816
-0.00716192
0.00109706
-0.00726083
6.52882e-06
-0.00704775
-0.00118859
-0.0065023
-0.0023785
-0.00563474
-0.00342109
-0.00450186
-0.00414792
-0.00321788
-0.00439586
-0.00195135
-0.0040589
-0.000896478
-0.00315278
-0.000219102
-0.00185899
-0.0005107
-0.000299834
0.00110014
-0.000986407
0.00270133
-0.00190278
0.00376151
-0.00293959
0.00437241
-0.0040199
0.0046203
-0.00508574
0.00456301
-0.00608739
0.00422791
-0.00697626
0.00362122
-0.00770073
0.00274263
-0.00820485
0.00160119
-0.00842851
0.00023018
-0.00831608
-0.00130101
-0.00782121
-0.00287337
-0.00692718
-0.00431512
-0.00566861
-0.00540649
-0.00415547
-0.005909
-0.00258458
-0.00562978
-0.00121684
-0.00452052
-0.000305656
-0.00277017
-0.000816356
-0.000324155
0.0014243
-0.0010638
0.00344098
-0.00204798
0.00474569
-0.00315951
0.00548393
-0.00431933
0.00578012
-0.00547159
0.00571527
-0.00657108
0.00532741
-0.00757404
0.00462418
-0.00843183
0.00360041
-0.0090871
0.00225646
-0.00947236
0.000615443
-0.00951345
-0.00125993
-0.00913736
-0.00324946
-0.00829088
-0.00516161
-0.00697026
-0.0067271
-0.00526063
-0.00761863
-0.00337142
-0.00751899
-0.00163469
-0.00625725
-0.000424256
-0.00398061
-0.00124061
-0.000336043
0.00176034
-0.00110246
0.0042074
-0.00212053
0.00576375
-0.00326843
0.00663184
-0.00446718
0.00697887
-0.00566516
0.00691325
-0.00682436
0.00648661
-0.00790933
0.00570915
-0.00887893
0.00457001
-0.00967995
0.00305747
-0.0102429
0.00117839
-0.0104812
-0.0010216
-0.0102964
-0.00343423
-0.00959374
-0.00586431
-0.0083148
-0.00800605
-0.00649149
-0.00944193
-0.0043133
-0.00969718
-0.00216958
-0.00840097
-0.00058644
-0.00556375
-0.00182705
-0.000335891
0.00209623
-0.0011018
0.00497331
-0.00211582
0.00677777
-0.0032537
0.00776972
-0.00443824
0.00816341
-0.00562403
0.00809904
-0.00678274
0.00764532
-0.00789098
0.00681739
-0.00892036
0.00559939
-0.00982918
0.00396629
-0.0105551
0.00190433
-0.0110095
-0.000567192
-0.0110777
-0.00336607
-0.0106256
-0.00631645
-0.00952958
-0.00910203
-0.00773767
-0.0112338
-0.00536963
-0.0120652
-0.0028278
-0.0109428
-0.000804292
-0.00758726
-0.00263134
-0.000327294
0.00242352
-0.00106869
0.0057147
-0.00204005
0.00774914
-0.00311549
0.00884516
-0.00422133
0.00926925
-0.00532046
0.00919817
-0.00639688
0.00872173
-0.0074427
0.00786321
-0.00844757
0.00660426
-0.00938907
0.00490779
-0.0102233
0.00273856
-0.0108728
8.22738e-05
-0.0112244
-0.00301439
-0.0111173
-0.0064236
-0.0103647
-0.00985463
-0.0088078
-0.0127907
-0.00643828
-0.0144347
-0.00358993
-0.0137912
-0.00108891
-0.0100883
-0.00372025
-0.000319149
0.00274267
-0.00102177
0.00641732
-0.00191611
0.00864348
-0.00287416
0.0098032
-0.00382862
0.0102237
-0.00475405
0.0101236
-0.00564979
0.00961748
-0.00652658
0.00874
-0.00739608
0.00747377
-0.00826142
0.00577313
-0.00910654
0.00358368
-0.00988511
0.000860844
-0.0104983
-0.0024012
-0.0107876
-0.00613428
-0.0105228
-0.0101194
-0.00943619
-0.0138774
-0.00734164
-0.0165293
-0.00439374
-0.0167391
-0.00144626
-0.0130358
-0.00516651
-0.000328711
0.00307138
-0.00099635
0.00708496
-0.00178861
0.00943574
-0.00257501
0.0105896
-0.00330081
0.0109495
-0.00395844
0.0107812
-0.00456692
0.010226
-0.00515827
0.00933135
-0.00576825
0.00808375
-0.00642844
0.00643331
-0.00715694
0.00431219
-0.00794563
0.00164953
-0.00873829
-0.00160854
-0.00940585
-0.00546673
-0.009714
-0.00981128
-0.00931544
-0.0142759
-0.00782868
-0.018016
-0.00511621
-0.0194515
-0.00186865
-0.0162833
-0.00703516
-0.000386439
0.00345782
-0.00104951
0.00774803
-0.00172594
0.0101122
-0.00228635
0.01115
-0.00270173
0.0113649
-0.00299348
0.011073
-0.0032067
0.0104392
-0.00339711
0.00952175
-0.00362423
0.00831087
-0.00394672
0.0067558
-0.00441633
0.00478179
-0.00506791
0.00230112
-0.0059004
-0.000776049
-0.00684533
-0.0045218
-0.00771571
-0.00894089
-0.0081473
-0.0138443
-0.00759753
-0.0185658
-0.00556192
-0.0214871
-0.00232046
-0.0195248
-0.00935562
-0.000544375
0.0040022
-0.00126347
0.00846712
-0.00181192
0.0106606
-0.00207917
0.0114173
-0.00208795
0.0113737
-0.00190634
0.0108914
-0.00161432
0.0101472
-0.00129334
0.00920077
-0.00102438
0.00804192
-0.000888153
0.00661957
-0.000963898
0.00485754
-0.00132501
0.00266222
-0.0020275
-7.35583e-05
-0.0030823
-0.003467
-0.00439913
-0.00762406
-0.00568317
-0.0125603
-0.0063261
-0.0179229
-0.00546086
-0.0223524
-0.00271711
-0.0222685
-0.0120727
-0.000884048
0.00488625
-0.00173129
0.00931436
-0.00209916
0.0110285
-0.00195171
0.0112698
-0.00141126
0.0108332
-0.000618157
0.0100983
0.000303222
0.00922578
0.00124577
0.00825822
0.00211168
0.007176
0.00280594
0.00592531
0.00323133
0.00443215
0.00328659
0.00260696
0.00286859
0.000344447
0.001889
-0.0024874
0.000314243
-0.00604931
-0.00171576
-0.0105303
-0.00367763
-0.015961
-0.00445852
-0.0215715
-0.00289388
-0.0238332
-0.0149666
-0.00150689
0.00639314
-0.00245105
0.0102585
-0.00240672
0.0109842
-0.00156457
0.0104277
-0.000224206
0.00949286
0.00137726
0.00849681
0.0030714
0.00753164
0.00473438
0.00659524
0.00626418
0.0056462
0.00756416
0.00462533
0.00853246
0.00346385
0.00905494
0.00208448
0.00899937
0.00040002
0.00822172
-0.00170975
0.00657515
-0.00440274
0.00400025
-0.0079554
0.000774916
-0.0127357
-0.00204624
-0.0187503
-0.00251782
-0.0233616
-0.0174844
-0.00234565
0.00873879
-0.00284094
0.0107538
-0.00163262
0.00977585
0.000495645
0.00829939
0.003012
0.0069765
0.00562152
0.00588729
0.00816072
0.00499244
0.0105301
0.00422581
0.0126543
0.00352207
0.0144586
0.002821
0.0158565
0.00206595
0.0167402
0.00120081
0.0169714
0.000168773
0.016385
-0.00112332
0.0147649
-0.00278262
0.0118748
-0.00506533
0.00760375
-0.00846463
0.00258178
-0.0137284
-0.000921793
-0.019858
-0.0184062
-0.0019992
0.010738
0.000358333
0.00839627
0.00430759
0.0058266
0.00830228
0.0043047
0.0120361
0.00324264
0.0154148
0.00250865
0.0184191
0.00198811
0.0210522
0.00159269
0.0233102
0.00126405
0.0251696
0.000961596
0.0265814
0.000654193
0.0274652
0.000317038
0.0277077
-7.37587e-05
0.0271569
-0.000572521
0.0255873
-0.001213
0.0226678
-0.00214587
0.0179314
-0.00372816
0.0109366
-0.00673357
0.00301856
-0.01194
-0.0153877
0.010738
0.0191343
0.0249609
0.0292656
0.0325082
0.0350169
0.037005
0.0385977
0.0398617
0.0408233
0.0414775
0.0417945
0.0417208
0.0411483
0.0399353
0.0377894
0.0340612
0.0273277
0.0153877
)
;

boundaryField
{
    movingWall
    {
        type            calculated;
        value           uniform 0;
    }
    fixedWalls
    {
        type            calculated;
        value           uniform 0;
    }
    frontAndBack
    {
        type            empty;
    }
}


// ************************************************************************* //
