/*--------------------------------*- C++ -*----------------------------------*\
  =========                 |
  \\      /  F ield         | OpenFOAM: The Open Source CFD Toolbox
   \\    /   O peration     | Website:  https://openfoam.org
    \\  /    A nd           | Version:  13
     \\/     M anipulation  |
\*---------------------------------------------------------------------------*/
FoamFile
{
    format      ascii;
    class       volVectorField;
    location    "9";
    object      U;
}
// * * * * * * * * * * * * * * * * * * * * * * * * * * * * * * * * * * * * * //

dimensions      [0 1 -1 0 0 0 0];

internalField   nonuniform List<vector> 
400
(
(0.000202966 -0.000203065 0)
(-0.000107953 -9.6186e-06 0)
(-0.00149546 0.000200692 0)
(-0.00368033 0.000333964 0)
(-0.00634858 0.000403457 0)
(-0.00921493 0.000429734 0)
(-0.0120389 0.000423146 0)
(-0.0145969 0.000383505 0)
(-0.0166587 0.000304773 0)
(-0.017988 0.000181616 0)
(-0.0183664 1.6079e-05 0)
(-0.0176411 -0.000179717 0)
(-0.0157828 -0.000375401 0)
(-0.0129351 -0.000530854 0)
(-0.00943783 -0.000603226 0)
(-0.00579925 -0.000560696 0)
(-0.00260958 -0.000395924 0)
(-0.000389995 -0.00013785 0)
(0.000546904 0.000132158 0)
(0.000308414 0.000295524 0)
(-1.42649e-06 0.000105451 0)
(-0.00196783 0.00183415 0)
(-0.00623018 0.00356559 0)
(-0.0121629 0.00475917 0)
(-0.0190784 0.00538809 0)
(-0.026347 0.00552098 0)
(-0.0333888 0.00520737 0)
(-0.0396476 0.00445548 0)
(-0.0445693 0.0032567 0)
(-0.0476181 0.0016282 0)
(-0.0483378 -0.000344746 0)
(-0.0464398 -0.00248251 0)
(-0.0419115 -0.00450478 0)
(-0.0351064 -0.00606721 0)
(-0.0267708 -0.00683154 0)
(-0.0179881 -0.00656598 0)
(-0.0100085 -0.00524931 0)
(-0.00397 -0.00314787 0)
(-0.00055951 -0.000870767 0)
(0.000231595 0.000574328 0)
(-0.00027014 0.00164898 0)
(-0.00424131 0.00624879 0)
(-0.0114274 0.0102813 0)
(-0.0207932 0.0130055 0)
(-0.031349 0.0143836 0)
(-0.0422409 0.0145301 0)
(-0.0526626 0.0135312 0)
(-0.0618326 0.01141 0)
(-0.0689814 0.00817863 0)
(-0.0733827 0.00392381 0)
(-0.0744319 -0.00111064 0)
(-0.0717554 -0.00647327 0)
(-0.0653352 -0.0115082 0)
(-0.0556178 -0.015428 0)
(-0.0435608 -0.0174646 0)
(-0.030585 -0.0170843 0)
(-0.0183856 -0.0142194 0)
(-0.00858625 -0.00944371 0)
(-0.0023148 -0.00403225 0)
(8.02213e-05 1.1671e-05 0)
(-0.000512459 0.00441315 0)
(-0.00643509 0.0131784 0)
(-0.0164294 0.0201362 0)
(-0.0289813 0.0246576 0)
(-0.0428022 0.0268159 0)
(-0.0568715 0.0268134 0)
(-0.0702382 0.0247831 0)
(-0.0819822 0.0207686 0)
(-0.091198 0.014815 0)
(-0.0970264 0.00710106 0)
(-0.0987367 -0.00193784 0)
(-0.0958377 -0.0115382 0)
(-0.0882156 -0.0206022 0)
(-0.0762724 -0.0278108 0)
(-0.0610209 -0.0318456 0)
(-0.0440958 -0.0317314 0)
(-0.0275994 -0.0272358 0)
(-0.0137217 -0.0191958 0)
(-0.00422726 -0.00960755 0)
(-4.17923e-05 -0.00149999 0)
(-0.000720542 0.008305 0)
(-0.00841025 0.022444 0)
(-0.0209712 0.0328713 0)
(-0.036419 0.0393692 0)
(-0.0531857 0.0422851 0)
(-0.0701276 0.0419814 0)
(-0.0862117 0.0386631 0)
(-0.100448 0.032398 0)
(-0.111851 0.0232582 0)
(-0.119459 0.0115022 0)
(-0.122406 -0.00225926 0)
(-0.120015 -0.0169655 0)
(-0.111957 -0.0310625 0)
(-0.0984342 -0.042636 0)
(-0.0803512 -0.0496766 0)
(-0.0594477 -0.0505512 0)
(-0.0382421 -0.0446222 0)
(-0.0196544 -0.0328255 0)
(-0.00636829 -0.0178818 0)
(-0.000143735 -0.00400576 0)
(-0.000893516 0.0131816 0)
(-0.0100965 0.0337843 0)
(-0.0248833 0.0481849 0)
(-0.042859 0.0568323 0)
(-0.0622213 0.0605109 0)
(-0.081748 0.0598308 0)
(-0.100379 0.0551022 0)
(-0.117113 0.0464173 0)
(-0.130934 0.0338494 0)
(-0.140804 0.0176881 0)
(-0.145706 -0.00134931 0)
(-0.144713 -0.0219424 0)
(-0.137156 -0.042144 0)
(-0.122868 -0.0593978 0)
(-0.102452 -0.0708383 0)
(-0.0775834 -0.0738679 0)
(-0.0511508 -0.0670488 0)
(-0.0269675 -0.0510914 0)
(-0.00900778 -0.0293905 0)
(-0.000259879 -0.00765712 0)
(-0.00102681 0.0188706 0)
(-0.0114297 0.0468565 0)
(-0.0280059 0.0656751 0)
(-0.0480371 0.0766486 0)
(-0.0695464 0.0811473 0)
(-0.0912798 0.0801175 0)
(-0.112204 0.0740138 0)
(-0.131362 0.0629497 0)
(-0.147764 0.0469608 0)
(-0.160334 0.0262935 0)
(-0.167894 0.00167067 0)
(-0.169255 -0.0254692 0)
(-0.163337 -0.0528553 0)
(-0.149416 -0.077307 0)
(-0.127555 -0.0949591 0)
(-0.0990969 -0.101884 0)
(-0.0671028 -0.0952703 0)
(-0.0363357 -0.0750231 0)
(-0.0124994 -0.0449891 0)
(-0.00043403 -0.0127814 0)
(-0.00111364 0.0251649 0)
(-0.0123442 0.0612383 0)
(-0.0301762 0.0848317 0)
(-0.0516626 0.0982954 0)
(-0.0747144 0.103712 0)
(-0.0980903 0.102449 0)
(-0.120834 0.0951493 0)
(-0.142091 0.0819489 0)
(-0.160963 0.0628023 0)
(-0.1764 0.037825 0)
(-0.187148 0.0076149 0)
(-0.191766 -0.0264573 0)
(-0.188724 -0.0619407 0)
(-0.176649 -0.0951453 0)
(-0.154809 -0.121155 0)
(-0.123825 -0.134365 0)
(-0.0865061 -0.129867 0)
(-0.0483668 -0.105805 0)
(-0.0172365 -0.0658611 0)
(-0.000720878 -0.0199107 0)
(-0.00114977 0.0318239 0)
(-0.0127933 0.0764299 0)
(-0.0312617 0.105029 0)
(-0.0534668 0.121092 0)
(-0.0772613 0.127517 0)
(-0.101455 0.126177 0)
(-0.125214 0.117954 0)
(-0.147851 0.103019 0)
(-0.168633 0.0812148 0)
(-0.186641 0.0524409 0)
(-0.200657 0.0170279 0)
(-0.209111 -0.0238908 0)
(-0.210107 -0.067954 0)
(-0.201609 -0.111201 0)
(-0.181892 -0.147794 0)
(-0.150403 -0.17026 0)
(-0.10903 -0.170828 0)
(-0.0634181 -0.144501 0)
(-0.0236298 -0.0934443 0)
(-0.00119608 -0.0298018 0)
(-0.00114099 0.0385931 0)
(-0.0127877 0.0918811 0)
(-0.0312283 0.125537 0)
(-0.053298 0.144187 0)
(-0.0768309 0.151627 0)
(-0.100721 0.150322 0)
(-0.1243 0.141458 0)
(-0.147105 0.125274 0)
(-0.168661 0.101495 0)
(-0.188301 0.0697563 0)
(-0.205012 0.0300057 0)
(-0.217294 -0.017063 0)
(-0.223101 -0.069468 0)
(-0.219871 -0.123374 0)
(-0.204839 -0.172401 0)
(-0.175897 -0.207347 0)
(-0.133178 -0.217019 0)
(-0.0813212 -0.191583 0)
(-0.0320664 -0.129247 0)
(-0.00197341 -0.043454 0)
(-0.00111351 0.0452501 0)
(-0.0124487 0.107055 0)
(-0.0302304 0.145572 0)
(-0.0512461 0.166578 0)
(-0.0733385 0.174857 0)
(-0.0955248 0.173553 0)
(-0.117347 0.164233 0)
(-0.138625 0.147263 0)
(-0.159223 0.122285 0)
(-0.178857 0.088665 0)
(-0.196905 0.0459135 0)
(-0.212184 -0.00586691 0)
(-0.222824 -0.0654291 0)
(-0.226063 -0.1295 0)
(-0.218289 -0.191828 0)
(-0.195699 -0.242088 0)
(-0.155907 -0.265651 0)
(-0.100991 -0.246253 0)
(-0.0428018 -0.174481 0)
(-0.0032277 -0.062113 0)
(-0.00112948 0.0516874 0)
(-0.012077 0.121533 0)
(-0.028714 0.164378 0)
(-0.0477738 0.187176 0)
(-0.0671332 0.195819 0)
(-0.0860031 0.194235 0)
(-0.1042 0.184452 0)
(-0.121885 0.167033 0)
(-0.139328 0.141601 0)
(-0.15672 0.107307 0)
(-0.173979 0.0632338 0)
(-0.190544 0.00881682 0)
(-0.20503 -0.0556244 0)
(-0.214914 -0.12792 0)
(-0.216289 -0.202786 0)
(-0.20392 -0.269886 0)
(-0.172516 -0.312012 0)
(-0.119996 -0.305681 0)
(-0.0557287 -0.229444 0)
(-0.00521644 -0.087223 0)
(-0.00131374 0.058045 0)
(-0.0122432 0.135172 0)
(-0.0275196 0.181339 0)
(-0.0438134 0.204877 0)
(-0.0590931 0.213003 0)
(-0.0729081 0.210536 0)
(-0.0854576 0.20003 0)
(-0.0973088 0.182304 0)
(-0.10918 0.157034 0)
(-0.12178 0.123242 0)
(-0.135649 0.0796705 0)
(-0.150957 0.0251306 0)
(-0.167156 -0.0410193 0)
(-0.182518 -0.118121 0)
(-0.193528 -0.202686 0)
(-0.194319 -0.285865 0)
(-0.177023 -0.349738 0)
(-0.134293 -0.364432 0)
(-0.0699791 -0.292627 0)
(-0.00827657 -0.120258 0)
(-0.00190259 0.0649156 0)
(-0.0139165 0.14827 0)
(-0.0279622 0.196064 0)
(-0.0407675 0.21861 0)
(-0.0505467 0.22483 0)
(-0.0574683 0.220532 0)
(-0.0622898 0.2088 0)
(-0.0660688 0.190714 0)
(-0.0699842 0.166045 0)
(-0.0752387 0.133772 0)
(-0.0829649 0.092435 0)
(-0.0940834 0.0403891 0)
(-0.109029 -0.0238838 0)
(-0.127275 -0.101245 0)
(-0.146526 -0.190579 0)
(-0.161502 -0.286055 0)
(-0.16299 -0.371782 0)
(-0.138324 -0.414508 0)
(-0.0833838 -0.359722 0)
(-0.012746 -0.162346 0)
(-0.00334648 0.0737054 0)
(-0.0186393 0.16178 0)
(-0.0317929 0.208415 0)
(-0.0402193 0.227292 0)
(-0.0427592 0.229628 0)
(-0.0406909 0.22224 0)
(-0.0355867 0.20862 0)
(-0.0290909 0.190008 0)
(-0.0228308 0.166234 0)
(-0.0184217 0.136283 0)
(-0.0174696 0.0986191 0)
(-0.0215257 0.0513722 0)
(-0.0319517 -0.00752803 0)
(-0.0495655 -0.0801497 0)
(-0.0739122 -0.167755 0)
(-0.101659 -0.268599 0)
(-0.124363 -0.371868 0)
(-0.12541 -0.44617 0)
(-0.0918991 -0.422773 0)
(-0.0187063 -0.213535 0)
(-0.00642009 0.0870821 0)
(-0.0285873 0.177089 0)
(-0.040595 0.217955 0)
(-0.0426846 0.229258 0)
(-0.0351707 0.225182 0)
(-0.0212277 0.213312 0)
(-0.00355334 0.197201 0)
(0.015547 0.177983 0)
(0.0340569 0.155419 0)
(0.050083 0.128479 0)
(0.0617231 0.0956497 0)
(0.0670089 0.0550566 0)
(0.0638732 0.00448509 0)
(0.0503329 -0.0587312 0)
(0.0248542 -0.137557 0)
(-0.0121407 -0.234378 0)
(-0.0556047 -0.345863 0)
(-0.0878104 -0.449119 0)
(-0.0890291 -0.469577 0)
(-0.0253393 -0.271434 0)
(-0.0125582 0.110586 0)
(-0.0456852 0.196161 0)
(-0.0525888 0.223397 0)
(-0.0427675 0.22157 0)
(-0.0196625 0.208151 0)
(0.0106742 0.190643 0)
(0.0442869 0.171887 0)
(0.0783593 0.152433 0)
(0.110722 0.131728 0)
(0.139453 0.108655 0)
(0.162611 0.0817732 0)
(0.178086 0.0493816 0)
(0.183417 0.00947763 0)
(0.175891 -0.0405332 0)
(0.152404 -0.104162 0)
(0.110497 -0.186659 0)
(0.0496341 -0.292704 0)
(-0.0154093 -0.413875 0)
(-0.0648654 -0.484439 0)
(-0.0296517 -0.329929 0)
(-0.0215994 0.148574 0)
(-0.0654341 0.213034 0)
(-0.0500493 0.214567 0)
(-0.0142726 0.194245 0)
(0.0340152 0.1706 0)
(0.0862705 0.148606 0)
(0.138328 0.12902 0)
(0.187789 0.111206 0)
(0.23304 0.0940908 0)
(0.272665 0.0764569 0)
(0.305102 0.057022 0)
(0.328476 0.0344193 0)
(0.340309 0.00710255 0)
(0.337739 -0.0269091 0)
(0.316808 -0.0705847 0)
(0.2733 -0.129785 0)
(0.201117 -0.214692 0)
(0.107179 -0.334758 0)
(-0.0036191 -0.451217 0)
(-0.0233315 -0.378505 0)
(-0.027426 0.229497 0)
(-0.0364123 0.223231 0)
(0.0464916 0.176854 0)
(0.126644 0.138437 0)
(0.204745 0.109067 0)
(0.276142 0.0874131 0)
(0.339998 0.0711744 0)
(0.396352 0.0583024 0)
(0.445294 0.0472677 0)
(0.486599 0.0368947 0)
(0.519558 0.0262069 0)
(0.542938 0.0143263 0)
(0.554736 0.000357395 0)
(0.552584 -0.0166879 0)
(0.532414 -0.0387972 0)
(0.48993 -0.0702634 0)
(0.414868 -0.120851 0)
(0.304583 -0.213361 0)
(0.125678 -0.348305 0)
(0.0236162 -0.378759 0)
(0.214489 0.135845 0)
(0.285291 0.0985088 0)
(0.444828 0.0569411 0)
(0.547983 0.0365705 0)
(0.621522 0.0241284 0)
(0.67785 0.0162706 0)
(0.722176 0.0112931 0)
(0.757575 0.00798313 0)
(0.785909 0.00557466 0)
(0.808084 0.00359771 0)
(0.824278 0.00173994 0)
(0.834143 -0.000214771 0)
(0.836789 -0.00246196 0)
(0.830875 -0.00501059 0)
(0.813406 -0.00847451 0)
(0.781918 -0.0134969 0)
(0.724111 -0.0231866 0)
(0.635303 -0.0406192 0)
(0.431311 -0.0913117 0)
(0.270894 -0.15353 0)
)
;

boundaryField
{
    movingWall
    {
        type            fixedValue;
        value           uniform (1 0 0);
    }
    fixedWalls
    {
        type            fixedValue;
        value           uniform (0 0 0);
    }
    frontAndBack
    {
        type            empty;
    }
}


// ************************************************************************* //
