/*--------------------------------*- C++ -*----------------------------------*\
  =========                 |
  \\      /  F ield         | OpenFOAM: The Open Source CFD Toolbox
   \\    /   O peration     | Website:  https://openfoam.org
    \\  /    A nd           | Version:  13
     \\/     M anipulation  |
\*---------------------------------------------------------------------------*/
FoamFile
{
    format      ascii;
    class       volVectorField;
    location    "9";
    object      U_0;
}
// * * * * * * * * * * * * * * * * * * * * * * * * * * * * * * * * * * * * * //

dimensions      [0 1 -1 0 0 0 0];

internalField   nonuniform List<vector> 
400
(
(0.000202903 -0.000203032 0)
(-0.000108045 -9.60187e-06 0)
(-0.00149539 0.000200681 0)
(-0.00367997 0.000333933 0)
(-0.00634785 0.000403413 0)
(-0.00921377 0.000429681 0)
(-0.0120374 0.000423088 0)
(-0.0145949 0.000383449 0)
(-0.0166565 0.000304728 0)
(-0.0179857 0.00018159 0)
(-0.018364 1.60804e-05 0)
(-0.017639 -0.000179684 0)
(-0.015781 -0.000375341 0)
(-0.0129338 -0.000530777 0)
(-0.00943707 -0.000603149 0)
(-0.00579897 -0.000560639 0)
(-0.00260965 -0.000395901 0)
(-0.000390204 -0.000137866 0)
(0.000546725 0.000132103 0)
(0.00030836 0.000295471 0)
(-1.44972e-06 0.000105487 0)
(-0.00196762 0.00183396 0)
(-0.00622936 0.00356513 0)
(-0.0121612 0.0047585 0)
(-0.0190756 0.0053873 0)
(-0.0263431 0.00552016 0)
(-0.0333838 0.0052066 0)
(-0.0396417 0.00445485 0)
(-0.0445628 0.00325629 0)
(-0.0476113 0.00162808 0)
(-0.0483312 -0.000344526 0)
(-0.0464337 -0.00248195 0)
(-0.0419063 -0.00450395 0)
(-0.0351024 -0.00606623 0)
(-0.0267682 -0.00683056 0)
(-0.0179866 -0.00656518 0)
(-0.010008 -0.00524882 0)
(-0.00397002 -0.00314773 0)
(-0.00055968 -0.000870908 0)
(0.000231535 0.00057414 0)
(-0.000270109 0.00164882 0)
(-0.00424065 0.00624794 0)
(-0.0114255 0.0102798 0)
(-0.0207898 0.0130036 0)
(-0.031344 0.0143814 0)
(-0.0422341 0.0145279 0)
(-0.0526542 0.0135292 0)
(-0.061823 0.0114085 0)
(-0.068971 0.00817769 0)
(-0.073372 0.00392364 0)
(-0.0744215 -0.00110995 0)
(-0.0717458 -0.00647176 0)
(-0.065327 -0.011506 0)
(-0.0556113 -0.0154255 0)
(-0.0435561 -0.0174621 0)
(-0.0305821 -0.0170821 0)
(-0.0183842 -0.0142179 0)
(-0.00858576 -0.00944306 0)
(-0.00231478 -0.00403227 0)
(8.01784e-05 1.14107e-05 0)
(-0.000512372 0.00441253 0)
(-0.00643397 0.0131764 0)
(-0.0164265 0.020133 0)
(-0.0289764 0.0246537 0)
(-0.042795 0.0268117 0)
(-0.0568621 0.0268093 0)
(-0.0702269 0.0247795 0)
(-0.0819695 0.0207659 0)
(-0.0911843 0.0148135 0)
(-0.0970124 0.00710092 0)
(-0.0987231 -0.00193649 0)
(-0.0958251 -0.0115354 0)
(-0.0882046 -0.0205983 0)
(-0.0762635 -0.0278063 0)
(-0.0610142 -0.031841 0)
(-0.0440913 -0.0317274 0)
(-0.0275969 -0.0272329 0)
(-0.0137206 -0.0191942 0)
(-0.00422701 -0.00960716 0)
(-4.18163e-05 -0.00150021 0)
(-0.000720409 0.00830368 0)
(-0.00840874 0.0224404 0)
(-0.0209675 0.032866 0)
(-0.0364128 0.0393629 0)
(-0.0531768 0.0422785 0)
(-0.0701162 0.0419752 0)
(-0.0861983 0.0386577 0)
(-0.100433 0.032394 0)
(-0.111834 0.023256 0)
(-0.119443 0.0115021 0)
(-0.12239 -0.00225719 0)
(-0.12 -0.0169613 0)
(-0.111944 -0.0310567 0)
(-0.0984232 -0.0426292 0)
(-0.0803426 -0.0496696 0)
(-0.0594417 -0.0505448 0)
(-0.0382384 -0.0446173 0)
(-0.0196526 -0.0328225 0)
(-0.00636778 -0.0178807 0)
(-0.00014374 -0.00400581 0)
(-0.000893351 0.0131794 0)
(-0.0100948 0.0337786 0)
(-0.0248791 0.0481771 0)
(-0.042852 0.0568233 0)
(-0.0622115 0.0605017 0)
(-0.0817356 0.0598221 0)
(-0.100365 0.0550949 0)
(-0.117097 0.0464119 0)
(-0.130917 0.0338465 0)
(-0.140786 0.017688 0)
(-0.145688 -0.00134639 0)
(-0.144697 -0.0219369 0)
(-0.137141 -0.0421362 0)
(-0.122856 -0.0593887 0)
(-0.102442 -0.0708287 0)
(-0.0775759 -0.0738589 0)
(-0.051146 -0.0670416 0)
(-0.026965 -0.0510867 0)
(-0.009007 -0.0293883 0)
(-0.000259864 -0.00765687 0)
(-0.00102664 0.0188674 0)
(-0.0114279 0.0468488 0)
(-0.0280016 0.0656645 0)
(-0.0480299 0.0766366 0)
(-0.0695364 0.0811353 0)
(-0.0912673 0.0801064 0)
(-0.112189 0.0740045 0)
(-0.131346 0.062943 0)
(-0.147747 0.0469573 0)
(-0.160317 0.0262934 0)
(-0.167877 0.00167422 0)
(-0.169238 -0.0254624 0)
(-0.163322 -0.0528458 0)
(-0.149403 -0.0772956 0)
(-0.127544 -0.0949469 0)
(-0.0990884 -0.101872 0)
(-0.0670971 -0.0952604 0)
(-0.0363326 -0.0750161 0)
(-0.0124983 -0.0449855 0)
(-0.00043399 -0.0127807 0)
(-0.00111348 0.0251607 0)
(-0.0123426 0.0612285 0)
(-0.0301722 0.0848185 0)
(-0.051656 0.0982807 0)
(-0.0747052 0.103697 0)
(-0.0980788 0.102435 0)
(-0.12082 0.0951383 0)
(-0.142077 0.081941 0)
(-0.160948 0.0627982 0)
(-0.176385 0.0378248 0)
(-0.187133 0.00761876 0)
(-0.191751 -0.0264497 0)
(-0.18871 -0.0619299 0)
(-0.176636 -0.095132 0)
(-0.154798 -0.12114 0)
(-0.123816 -0.134351 0)
(-0.0864998 -0.129854 0)
(-0.0483632 -0.105796 0)
(-0.0172352 -0.0658558 0)
(-0.000720807 -0.0199094 0)
(-0.00114965 0.031819 0)
(-0.012792 0.0764183 0)
(-0.0312585 0.105013 0)
(-0.0534615 0.121075 0)
(-0.0772539 0.1275 0)
(-0.101446 0.126161 0)
(-0.125204 0.117942 0)
(-0.147839 0.103011 0)
(-0.168621 0.0812102 0)
(-0.186629 0.0524406 0)
(-0.200645 0.0170321 0)
(-0.209099 -0.0238825 0)
(-0.210096 -0.0679423 0)
(-0.201599 -0.111187 0)
(-0.181882 -0.147777 0)
(-0.150394 -0.170243 0)
(-0.109024 -0.170813 0)
(-0.0634142 -0.144489 0)
(-0.0236283 -0.0934372 0)
(-0.00119597 -0.0297997 0)
(-0.00114093 0.0385875 0)
(-0.0127869 0.0918682 0)
(-0.0312264 0.12552 0)
(-0.0532946 0.144168 0)
(-0.0768262 0.151608 0)
(-0.100716 0.150305 0)
(-0.124294 0.141444 0)
(-0.147098 0.125264 0)
(-0.168654 0.10149 0)
(-0.188294 0.0697561 0)
(-0.205005 0.0300101 0)
(-0.217288 -0.0170545 0)
(-0.223095 -0.069456 0)
(-0.219865 -0.123359 0)
(-0.204833 -0.172384 0)
(-0.175891 -0.207329 0)
(-0.133173 -0.217002 0)
(-0.0813175 -0.191569 0)
(-0.0320647 -0.129238 0)
(-0.00197326 -0.0434511 0)
(-0.00111353 0.0452443 0)
(-0.0124487 0.107041 0)
(-0.03023 0.145554 0)
(-0.0512452 0.166559 0)
(-0.0733371 0.174837 0)
(-0.0955231 0.173536 0)
(-0.117345 0.16422 0)
(-0.138623 0.147254 0)
(-0.159222 0.12228 0)
(-0.178857 0.0886651 0)
(-0.196904 0.0459181 0)
(-0.212184 -0.00585848 0)
(-0.222823 -0.0654173 0)
(-0.226062 -0.129485 0)
(-0.218287 -0.191812 0)
(-0.195697 -0.24207 0)
(-0.155904 -0.265633 0)
(-0.100988 -0.246238 0)
(-0.0428002 -0.17447 0)
(-0.00322749 -0.0621092 0)
(-0.00112959 0.0516818 0)
(-0.0120777 0.12152 0)
(-0.0287152 0.16436 0)
(-0.0477756 0.187156 0)
(-0.0671355 0.1958 0)
(-0.086006 0.194219 0)
(-0.104204 0.184439 0)
(-0.121889 0.167024 0)
(-0.139333 0.141597 0)
(-0.156726 0.107308 0)
(-0.173985 0.0632386 0)
(-0.19055 0.00882511 0)
(-0.205036 -0.0556132 0)
(-0.214919 -0.127907 0)
(-0.216292 -0.202771 0)
(-0.203921 -0.26987 0)
(-0.172516 -0.311995 0)
(-0.119995 -0.305666 0)
(-0.0557275 -0.229432 0)
(-0.00521621 -0.0872184 0)
(-0.00131392 0.05804 0)
(-0.0122446 0.135159 0)
(-0.0275225 0.181322 0)
(-0.0438179 0.204858 0)
(-0.0590991 0.212985 0)
(-0.0729155 0.21052 0)
(-0.0854662 0.200018 0)
(-0.0973186 0.182296 0)
(-0.109191 0.157031 0)
(-0.121791 0.123244 0)
(-0.135661 0.0796756 0)
(-0.15097 0.0251388 0)
(-0.167168 -0.041009 0)
(-0.182528 -0.118109 0)
(-0.193537 -0.202673 0)
(-0.194325 -0.285851 0)
(-0.177027 -0.349723 0)
(-0.134293 -0.364417 0)
(-0.0699786 -0.292615 0)
(-0.00827633 -0.120253 0)
(-0.00190283 0.0649115 0)
(-0.0139185 0.14826 0)
(-0.0279667 0.196049 0)
(-0.0407744 0.218593 0)
(-0.050556 0.224814 0)
(-0.0574796 0.220518 0)
(-0.0623029 0.208789 0)
(-0.0660833 0.190708 0)
(-0.0699997 0.166043 0)
(-0.0752548 0.133774 0)
(-0.0829812 0.0924402 0)
(-0.0940994 0.0403968 0)
(-0.109044 -0.0238744 0)
(-0.127289 -0.101235 0)
(-0.146538 -0.190569 0)
(-0.161512 -0.286044 0)
(-0.162996 -0.37177 0)
(-0.138327 -0.414496 0)
(-0.0833843 -0.359711 0)
(-0.0127458 -0.162341 0)
(-0.00334675 0.0737026 0)
(-0.0186418 0.161772 0)
(-0.0317985 0.208403 0)
(-0.0402281 0.227278 0)
(-0.042771 0.229615 0)
(-0.0407053 0.222228 0)
(-0.0356031 0.20861 0)
(-0.0291087 0.190003 0)
(-0.0228494 0.166233 0)
(-0.0184405 0.136285 0)
(-0.0174881 0.0986241 0)
(-0.0215436 0.0513793 0)
(-0.0319685 -0.00751976 0)
(-0.0495809 -0.0801411 0)
(-0.0739257 -0.167747 0)
(-0.101671 -0.268591 0)
(-0.124371 -0.37186 0)
(-0.125414 -0.446161 0)
(-0.0919007 -0.422765 0)
(-0.0187062 -0.21353 0)
(-0.00642034 0.0870807 0)
(-0.0285899 0.177084 0)
(-0.0406009 0.217947 0)
(-0.0426942 0.229247 0)
(-0.0351836 0.225171 0)
(-0.0212434 0.213303 0)
(-0.00357122 0.197193 0)
(0.0155278 0.177979 0)
(0.0340371 0.155418 0)
(0.0500634 0.128481 0)
(0.0617042 0.095654 0)
(0.0669911 0.0550626 0)
(0.0638569 0.004492 0)
(0.0503182 -0.0587242 0)
(0.0248413 -0.137551 0)
(-0.0121516 -0.234372 0)
(-0.0556132 -0.345857 0)
(-0.0878159 -0.449114 0)
(-0.0890314 -0.469571 0)
(-0.0253394 -0.271431 0)
(-0.0125584 0.110586 0)
(-0.0456873 0.196158 0)
(-0.052594 0.223392 0)
(-0.0427761 0.221563 0)
(-0.0196744 0.208143 0)
(0.0106594 0.190636 0)
(0.04427 0.171882 0)
(0.078341 0.152429 0)
(0.110703 0.131726 0)
(0.139434 0.108656 0)
(0.162593 0.0817763 0)
(0.17807 0.0493861 0)
(0.183403 0.00948286 0)
(0.175878 -0.0405279 0)
(0.152393 -0.104157 0)
(0.110488 -0.186655 0)
(0.0496269 -0.292701 0)
(-0.0154143 -0.413872 0)
(-0.0648678 -0.484436 0)
(-0.029652 -0.329926 0)
(-0.0215993 0.148575 0)
(-0.065435 0.213034 0)
(-0.0500522 0.214565 0)
(-0.0142781 0.194241 0)
(0.0340068 0.170596 0)
(0.0862594 0.148601 0)
(0.138315 0.129016 0)
(0.187774 0.111203 0)
(0.233025 0.0940897 0)
(0.27265 0.0764574 0)
(0.305087 0.0570239 0)
(0.328462 0.0344222 0)
(0.340298 0.00710595 0)
(0.337729 -0.0269057 0)
(0.3168 -0.0705818 0)
(0.273294 -0.129783 0)
(0.201112 -0.214691 0)
(0.107175 -0.334757 0)
(-0.00362101 -0.451216 0)
(-0.0233318 -0.378504 0)
(-0.0274258 0.229498 0)
(-0.036412 0.223231 0)
(0.0464913 0.176853 0)
(0.126642 0.138435 0)
(0.204742 0.109065 0)
(0.276136 0.087411 0)
(0.33999 0.0711726 0)
(0.396342 0.0583011 0)
(0.445284 0.0472672 0)
(0.486588 0.0368948 0)
(0.519548 0.0262078 0)
(0.542929 0.0143277 0)
(0.554728 0.000358981 0)
(0.552578 -0.0166864 0)
(0.532409 -0.0387959 0)
(0.489927 -0.0702625 0)
(0.414866 -0.120851 0)
(0.304582 -0.213361 0)
(0.125677 -0.348305 0)
(0.023616 -0.378758 0)
(0.214489 0.135845 0)
(0.285292 0.0985091 0)
(0.444828 0.0569413 0)
(0.547983 0.0365705 0)
(0.621522 0.0241282 0)
(0.677849 0.0162704 0)
(0.722173 0.0112929 0)
(0.757571 0.00798302 0)
(0.785905 0.00557466 0)
(0.808079 0.00359783 0)
(0.824274 0.00174014 0)
(0.83414 -0.000214514 0)
(0.836787 -0.00246176 0)
(0.830874 -0.0050104 0)
(0.813405 -0.00847438 0)
(0.781918 -0.0134969 0)
(0.724111 -0.0231866 0)
(0.635303 -0.0406193 0)
(0.431311 -0.0913118 0)
(0.270894 -0.15353 0)
)
;

boundaryField
{
    movingWall
    {
        type            calculated;
        value           uniform (1 0 0);
    }
    fixedWalls
    {
        type            calculated;
        value           uniform (0 0 0);
    }
    frontAndBack
    {
        type            empty;
    }
}


// ************************************************************************* //
