/*--------------------------------*- C++ -*----------------------------------*\
  =========                 |
  \\      /  F ield         | OpenFOAM: The Open Source CFD Toolbox
   \\    /   O peration     | Website:  https://openfoam.org
    \\  /    A nd           | Version:  13
     \\/     M anipulation  |
\*---------------------------------------------------------------------------*/
FoamFile
{
    format      ascii;
    class       volScalarField;
    location    "21";
    object      p;
}
// * * * * * * * * * * * * * * * * * * * * * * * * * * * * * * * * * * * * * //

dimensions      [0 2 -2 0 0 0 0];

internalField   nonuniform List<scalar> 
400
(
1.25068e-06
-0.000571042
-0.00121451
-0.00171721
-0.00195737
-0.00188273
-0.00146845
-0.000703436
0.000403421
0.00180807
0.00341675
0.005077
0.00659299
0.00775305
0.00838182
0.00839778
0.00785767
0.0069714
0.00605063
0.00549701
0.000571157
-1.89935e-05
-0.000568281
-0.000955528
-0.00113035
-0.00106015
-0.000724033
-0.000107217
0.000790855
0.00194156
0.0032719
0.00466221
0.00594277
0.0069319
0.00747639
0.00750406
0.00706164
0.00632141
0.00554593
0.00497536
0.00124675
0.000494189
-8.53929e-05
-0.000439945
-0.000604599
-0.00057457
-0.000335393
0.00013461
0.000851814
0.00180907
0.00295706
0.00419401
0.00536665
0.00629605
0.00682155
0.0068553
0.00642329
0.00567086
0.00481172
0.00404003
0.0017415
0.000764786
7.49208e-05
-0.000320558
-0.000535598
-0.000591027
-0.000476316
-0.000158048
0.000402296
0.00122446
0.00228412
0.00349531
0.00470414
0.00571217
0.00632187
0.00640071
0.00593619
0.00505339
0.00395135
0.00284748
0.00179634
0.000596769
-0.000226466
-0.000703418
-0.00101655
-0.00120541
-0.00125727
-0.00112065
-0.000727923
-2.50921e-05
0.00099457
0.00226643
0.00363286
0.004864
0.00570142
0.00593511
0.00548328
0.0044385
0.0030031
0.00146539
0.00119564
-0.000201902
-0.00116197
-0.00175117
-0.00220962
-0.00258857
-0.00286682
-0.00296841
-0.00278884
-0.00222962
-0.00124066
0.000153947
0.0017962
0.00342308
0.00469337
0.00527784
0.00497505
0.00380893
0.00198242
-0.000100468
-0.000240477
-0.00179875
-0.00289071
-0.00362042
-0.00427558
-0.00491411
-0.00550209
-0.00593411
-0.00606074
-0.00572434
-0.00480265
-0.00328091
-0.0012662
0.000950633
0.00293001
0.00417342
0.00428275
0.00313909
0.000906302
-0.00185236
-0.00265044
-0.00432464
-0.00553933
-0.00643707
-0.00734449
-0.00832461
-0.00933019
-0.0102245
-0.0108065
-0.0108453
-0.0101282
-0.00853367
-0.00610191
-0.0031074
-8.19348e-05
0.0022592
0.00321659
0.00239916
-0.000173376
-0.00374875
-0.00611936
-0.00785951
-0.00918232
-0.010269
-0.0114798
-0.0128855
-0.0144299
-0.0159477
-0.0171838
-0.0178214
-0.0175289
-0.0160362
-0.0132468
-0.00935158
-0.00493061
-0.000936514
0.00151256
0.00155884
-0.00113286
-0.0056423
-0.0106689
-0.0124209
-0.0138245
-0.0150987
-0.0166383
-0.0185312
-0.0207218
-0.0230243
-0.0251336
-0.0266418
-0.0270765
-0.0259699
-0.0230268
-0.0182471
-0.0121614
-0.00591645
-0.00113721
0.000607688
-0.00172683
-0.00719043
-0.0162572
-0.017962
-0.0193922
-0.0208023
-0.022637
-0.0250181
-0.0279052
-0.0311045
-0.0342698
-0.0369056
-0.0383867
-0.0379977
-0.0352757
-0.0298257
-0.021998
-0.013
-0.00495421
-0.000370556
-0.00151129
-0.00771587
-0.022799
-0.0243861
-0.0257386
-0.027144
-0.0291385
-0.0319049
-0.0354358
-0.0395419
-0.0438467
-0.0477759
-0.0505709
-0.0513685
-0.0491548
-0.0433858
-0.0339814
-0.021971
-0.00980006
-0.00101959
0.000284811
-0.00599531
-0.030218
-0.0315819
-0.0326651
-0.0337873
-0.0356629
-0.0385739
-0.0425621
-0.0474473
-0.0528259
-0.0580538
-0.062242
-0.0643018
-0.0630139
-0.0573242
-0.0466857
-0.0316986
-0.0147954
-0.000412062
0.00497014
2.71056e-05
-0.0385551
-0.0394848
-0.0399566
-0.0403222
-0.0416298
-0.0443037
-0.0484389
-0.0538519
-0.0600978
-0.0664569
-0.0719209
-0.0752133
-0.0748628
-0.0694145
-0.0578009
-0.0399967
-0.0180184
0.00328392
0.0147025
0.0135593
-0.0481698
-0.0481523
-0.047399
-0.0462796
-0.0464072
-0.0483658
-0.0522753
-0.0579062
-0.0647318
-0.0719275
-0.0783529
-0.082554
-0.0828257
-0.0773683
-0.0646406
-0.043933
-0.0165399
0.0130221
0.0329341
0.0392834
-0.0602301
-0.0579532
-0.0548631
-0.0512095
-0.0494231
-0.0501738
-0.0535149
-0.0590875
-0.0662132
-0.0739116
-0.0808725
-0.0854471
-0.0857016
-0.0795156
-0.0649387
-0.0406088
-0.00697687
0.0328187
0.0647956
0.0836784
-0.0774771
-0.0694693
-0.062084
-0.0545464
-0.0501358
-0.0493213
-0.0518999
-0.0572556
-0.0644801
-0.0723786
-0.0794337
-0.0837728
-0.0832139
-0.0752797
-0.0576193
-0.0282101
0.0133531
0.0666616
0.115753
0.154808
-0.108922
-0.085037
-0.0697709
-0.0563895
-0.0485389
-0.0458784
-0.0476205
-0.0527103
-0.0599117
-0.0677712
-0.0745467
-0.078135
-0.0761004
-0.0655398
-0.0436418
-0.00744461
0.0447429
0.114932
0.188078
0.263281
-0.16869
-0.100743
-0.0730914
-0.0522868
-0.0413087
-0.0376976
-0.0394389
-0.0448614
-0.0524109
-0.0604416
-0.0670687
-0.0700431
-0.0666838
-0.0537858
-0.0278885
0.0154102
0.0800712
0.172759
0.285854
0.445985
-0.402751
-0.139029
-0.0734576
-0.0447291
-0.0305706
-0.0266158
-0.0290829
-0.0353698
-0.0436495
-0.0522023
-0.0591189
-0.0621409
-0.0586136
-0.0452113
-0.0174493
0.0310793
0.108495
0.236656
0.427487
0.793679
)
;

boundaryField
{
    movingWall
    {
        type            zeroGradient;
    }
    fixedWalls
    {
        type            zeroGradient;
    }
    frontAndBack
    {
        type            empty;
    }
}


// ************************************************************************* //
