/*--------------------------------*- C++ -*----------------------------------*\
  =========                 |
  \\      /  F ield         | OpenFOAM: The Open Source CFD Toolbox
   \\    /   O peration     | Website:  https://openfoam.org
    \\  /    A nd           | Version:  13
     \\/     M anipulation  |
\*---------------------------------------------------------------------------*/
FoamFile
{
    format      ascii;
    class       surfaceScalarField;
    location    "21";
    object      phi_0;
}
// * * * * * * * * * * * * * * * * * * * * * * * * * * * * * * * * * * * * * //

dimensions      [0 3 -1 0 0 0 0];

internalField   nonuniform List<scalar> 
760
(
4.3872e-06
-4.40099e-06
-3.89762e-05
4.33634e-05
-0.000131148
9.21723e-05
-0.000256565
0.000125416
-0.00039945
0.000142885
-0.000546348
0.000146898
-0.000685321
0.000138974
-0.000804606
0.000119284
-0.000892044
8.74381e-05
-0.000935789
4.37455e-05
-0.000926139
-9.64992e-06
-0.000858478
-6.76617e-05
-0.000735862
-0.000122615
-0.000571041
-0.000164822
-0.000386229
-0.000184812
-0.000210067
-0.000176162
-7.16592e-05
-0.000138408
7.52114e-06
-7.91804e-05
2.35917e-05
-1.60705e-05
2.35917e-05
-4.70745e-05
4.26735e-05
-0.00020998
0.000206269
-0.000473736
0.000355928
-0.000805924
0.000457605
-0.00117264
0.000509599
-0.00154242
0.000516677
-0.00188577
0.000482327
-0.00217383
0.000407347
-0.0023783
0.000291905
-0.00247347
0.000138919
-0.00244039
-4.27318e-05
-0.00227148
-0.00023657
-0.00197619
-0.000417913
-0.00158344
-0.000557569
-0.00114102
-0.000627234
-0.000709468
-0.000607711
-0.000350401
-0.000497475
-0.000110607
-0.000318974
-5.67359e-06
-0.000121004
1.79182e-05
-0.000111438
0.000154112
-0.000405269
0.0005001
-0.000834641
0.0007853
-0.0013502
0.00097316
-0.00190505
0.00106445
-0.00245573
0.00106736
-0.00296097
0.000987563
-0.00338049
0.000826867
-0.00367562
0.00058704
-0.0038122
0.000275496
-0.00376547
-8.94586e-05
-0.00352601
-0.000476032
-0.00310566
-0.000838264
-0.00254135
-0.00112188
-0.00189499
-0.00127359
-0.00124719
-0.00125551
-0.000683433
-0.00106124
-0.000273864
-0.000728543
-5.21083e-05
-0.00034276
-3.41901e-05
-0.00017315
0.000327262
-0.000593626
0.000920575
-0.0011793
0.00137098
-0.00186186
0.00165572
-0.00258307
0.00178565
-0.00329114
0.00177543
-0.00393747
0.0016339
-0.00447484
0.00136424
-0.0048579
0.0009701
-0.00504615
0.000463746
-0.00500893
-0.000126678
-0.0047316
-0.000753365
-0.00422253
-0.00134734
-0.00351885
-0.00182556
-0.00268921
-0.00210323
-0.00182997
-0.00211475
-0.00105155
-0.00183965
-0.00045455
-0.00132555
-0.000101955
-0.000695355
-0.000136145
-0.000228269
0.000555531
-0.000763592
0.0014559
-0.00149098
0.00209837
-0.00232382
0.00248856
-0.00319414
0.00265597
-0.00404468
0.00262598
-0.00482303
0.00241224
-0.00547832
0.00201953
-0.00596093
0.00145271
-0.00622455
0.000727373
-0.00623073
-0.000120501
-0.00595475
-0.00102935
-0.00539435
-0.00190773
-0.00457854
-0.00264137
-0.00357555
-0.00310622
-0.0024947
-0.0031956
-0.00147567
-0.00285868
-0.00066092
-0.0021403
-0.000156587
-0.00119969
-0.000292732
-0.00027475
0.000830281
-0.000908096
0.00208924
-0.00175742
0.00294769
-0.00272052
0.00345166
-0.00372199
0.00365744
-0.00470178
0.00360577
-0.00560664
0.00331711
-0.00638497
0.00279786
-0.00698476
0.0020525
-0.00735423
0.00109684
-0.00744527
-2.94684e-05
-0.00721805
-0.00125656
-0.00665244
-0.00247335
-0.00575977
-0.00353404
-0.00459838
-0.00426761
-0.00328483
-0.00450916
-0.0019908
-0.0041527
-0.000914066
-0.00321704
-0.000223243
-0.00189051
-0.000515974
-0.000310669
0.00114095
-0.00102076
0.00279933
-0.00196669
0.00389362
-0.00303454
0.00451952
-0.0041442
0.0047671
-0.00523544
0.00469701
-0.00625704
0.00433871
-0.00715949
0.00370031
-0.00789085
0.00278386
-0.00839522
0.00160121
-0.00861339
0.000188708
-0.00848919
-0.00138077
-0.0079772
-0.00298533
-0.00706098
-0.00445025
-0.0057758
-0.0055528
-0.00423309
-0.00605186
-0.0026326
-0.0057532
-0.00123943
-0.0046102
-0.000311382
-0.00281856
-0.000827356
-0.000334114
0.00147506
-0.00109542
0.00356063
-0.00210675
0.00490496
-0.00324656
0.00565933
-0.00443273
0.00595326
-0.00560732
0.00587161
-0.00672393
0.00545532
-0.00773829
0.00471466
-0.00860182
0.00364739
-0.00925767
0.00225706
-0.00963902
0.000570057
-0.00967197
-0.00134782
-0.00928372
-0.00337358
-0.00842071
-0.00531327
-0.00707878
-0.00689473
-0.00534323
-0.0077874
-0.00342539
-0.00767104
-0.00166159
-0.00637401
-0.000431551
-0.0040486
-0.00125891
-0.000343833
0.0018189
-0.00112757
0.00434437
-0.00216757
0.00594496
-0.00333828
0.00683003
-0.00455789
0.00717288
-0.005773
0.00708672
-0.00694464
0.00662696
-0.00803726
0.00580727
-0.00901017
0.00462031
-0.00981108
0.00305797
-0.0103714
0.00113039
-0.0106052
-0.00111403
-0.0104142
-0.00356455
-0.00970285
-0.00602465
-0.00841128
-0.00818629
-0.00656997
-0.00962871
-0.00436839
-0.00987261
-0.00219912
-0.00854328
-0.000595097
-0.00565263
-0.001854
-0.00034038
0.00215928
-0.00111705
0.00512103
-0.00214527
0.00697319
-0.00329803
0.00798279
-0.00449581
0.00837066
-0.00569165
0.00828255
-0.00685656
0.00779187
-0.00796731
0.00691802
-0.00899635
0.00564935
-0.00990324
0.00396485
-0.010627
0.00185416
-0.0110797
-0.000661355
-0.0111476
-0.00349667
-0.0106956
-0.00647665
-0.00959802
-0.00928384
-0.00779985
-0.0114269
-0.00541846
-0.012254
-0.00285694
-0.0111048
-0.000813765
-0.0076958
-0.00266777
-0.000327667
0.00248694
-0.0010716
0.00586497
-0.00204749
0.00794907
-0.00312804
0.00906335
-0.00423793
0.00948055
-0.00533886
0.00938348
-0.00641437
0.00886739
-0.00745698
0.00796063
-0.00845735
0.00664973
-0.00939456
0.00490206
-0.0102266
0.00268624
-0.0108748
-1.31498e-05
-0.0112316
-0.00313992
-0.0111328
-0.00657547
-0.01039
-0.0100267
-0.00884054
-0.0129763
-0.00647155
-0.014623
-0.00361413
-0.0139622
-0.00109817
-0.0102118
-0.00376594
-0.000315023
0.00280197
-0.00101107
0.00656101
-0.00189912
0.00883713
-0.00285149
0.0100157
-0.00380012
0.0104292
-0.00471882
0.0103022
-0.00560674
0.0097553
-0.00647503
0.00882891
-0.00733632
0.00751102
-0.00819508
0.00576082
-0.00903652
0.00352768
-0.00981847
0.000768801
-0.0104388
-0.00251965
-0.0107418
-0.00627243
-0.0104957
-0.0102727
-0.00942922
-0.0140428
-0.00735027
-0.0167019
-0.0044075
-0.016905
-0.00145374
-0.0131655
-0.00521968
-0.000320186
0.00312215
-0.000972121
0.00721294
-0.00174719
0.0096122
-0.00251707
0.0107856
-0.0032274
0.0111395
-0.00387055
0.0109453
-0.00446563
0.0103504
-0.00504508
0.00940837
-0.00564538
0.00811132
-0.00629899
0.00641443
-0.0070251
0.00425379
-0.00781712
0.00156082
-0.00861933
-0.00171744
-0.00930367
-0.00558809
-0.00963568
-0.0099407
-0.00926574
-0.0144127
-0.0078071
-0.0181606
-0.0051145
-0.0195976
-0.00187243
-0.0164076
-0.00709211
-0.000374121
0.00349628
-0.00101338
0.0078522
-0.0016627
0.0102615
-0.00219669
0.0113196
-0.00258812
0.0115309
-0.00285916
0.0112164
-0.00305544
0.0105467
-0.003233
0.00958593
-0.00345164
0.00832997
-0.00377018
0.00673297
-0.00424053
0.00472413
-0.0048979
0.0022182
-0.00574161
-0.000873724
-0.00670405
-0.00462566
-0.00759904
-0.0090457
-0.00806194
-0.0139498
-0.00754696
-0.0186756
-0.00554245
-0.0216021
-0.00231876
-0.0196313
-0.00941087
-0.000529508
0.00402578
-0.0012189
0.00854159
-0.00173261
0.0107752
-0.00196563
0.0115526
-0.00194391
0.0115092
-0.00173733
0.0110098
-0.00142683
0.0102362
-0.00109413
0.00925324
-0.000820031
0.00805587
-0.000684564
0.0065975
-0.000766052
0.00480562
-0.00113707
0.00258922
-0.00185321
-0.000157587
-0.0029256
-0.00355327
-0.00426509
-0.00770622
-0.00557802
-0.0126369
-0.00625552
-0.0179981
-0.00542601
-0.0224316
-0.0027092
-0.0223481
-0.0121201
-0.000868796
0.00489458
-0.00168434
0.00935714
-0.00201385
0.0111047
-0.0018279
0.0113666
-0.00125319
0.0109345
-0.000432862
0.0101895
0.000507376
0.00929592
0.00145994
0.00830067
0.00232763
0.00718818
0.00301657
0.00590856
0.00343114
0.00439106
0.00347179
0.00254856
0.00303692
0.000277282
0.00203887
-0.00255522
0.000443623
-0.00611097
-0.00161039
-0.0105829
-0.00360125
-0.0160072
-0.00441552
-0.0216174
-0.00288089
-0.0238827
-0.015001
-0.00149479
0.00638937
-0.00241139
0.0102737
-0.00233127
0.0110246
-0.00145152
0.0104869
-7.67579e-05
0.00955974
0.00155255
0.00856017
0.00326589
0.00758258
0.00493874
0.00662782
0.00646932
0.0056576
0.00776212
0.00461576
0.00871701
0.00343616
0.00922193
0.00204365
0.00914667
0.000352544
0.00834912
-0.00175767
0.00668305
-0.00444491
0.00408836
-0.0079882
0.000840489
-0.0127593
-0.00200532
-0.0187715
-0.00250297
-0.0233851
-0.0175039
-0.00234103
0.0087304
-0.00281999
0.0107527
-0.00158559
0.00979023
0.000573543
0.00832776
0.00312084
0.00701244
0.00575738
0.00592363
0.00831687
0.00502309
0.0106983
0.00424644
0.0128255
0.00353038
0.0146245
0.00281671
0.0160101
0.00205058
0.0168764
0.00117731
0.0170874
0.000141616
0.0164806
-0.00115085
0.0148416
-0.00280593
0.0119352
-0.0050818
0.00764961
-0.00847377
0.00261188
-0.0137338
-0.000908581
-0.0198646
-0.0184125
-0.00200262
0.010733
0.000357663
0.00839242
0.00431895
0.00582895
0.00833374
0.00431297
0.0120916
0.00325463
0.0154937
0.00252144
0.0185177
0.00199911
0.0211641
0.00160005
0.0234277
0.00126679
0.0252848
0.000959623
0.0266871
0.000648229
0.027556
0.000308452
0.027782
-8.43841e-05
0.027213
-0.000581835
0.0256273
-0.00122029
0.0226956
-0.00215008
0.017951
-0.00372918
0.01095
-0.00673275
0.0030246
-0.0119392
-0.0153879
0.010733
0.0191254
0.0249544
0.0292673
0.032522
0.0350434
0.0370425
0.0386426
0.0399094
0.040869
0.0415172
0.0418257
0.0417413
0.0411595
0.0399392
0.0377891
0.0340599
0.0273272
0.0153879
)
;

boundaryField
{
    movingWall
    {
        type            calculated;
        value           uniform 0;
    }
    fixedWalls
    {
        type            calculated;
        value           uniform 0;
    }
    frontAndBack
    {
        type            empty;
    }
}


// ************************************************************************* //
