/*--------------------------------*- C++ -*----------------------------------*\
  =========                 |
  \\      /  F ield         | OpenFOAM: The Open Source CFD Toolbox
   \\    /   O peration     | Website:  https://openfoam.org
    \\  /    A nd           | Version:  13
     \\/     M anipulation  |
\*---------------------------------------------------------------------------*/
FoamFile
{
    format      ascii;
    class       volVectorField;
    location    "21";
    object      U;
}
// * * * * * * * * * * * * * * * * * * * * * * * * * * * * * * * * * * * * * //

dimensions      [0 1 -1 0 0 0 0];

internalField   nonuniform List<vector> 
400
(
(0.00021352 -0.000214061 0)
(-9.37033e-05 -1.49645e-05 0)
(-0.00151398 0.000202306 0)
(-0.00376259 0.000340537 0)
(-0.00651339 0.000413199 0)
(-0.00947098 0.000441427 0)
(-0.0123858 0.000435754 0)
(-0.0150248 0.000395677 0)
(-0.0171481 0.000314693 0)
(-0.0185096 0.000187248 0)
(-0.018883 1.56954e-05 0)
(-0.0181125 -0.000186968 0)
(-0.0161725 -0.000388793 0)
(-0.0132172 -0.000547908 0)
(-0.00960356 -0.000620091 0)
(-0.00586014 -0.000573109 0)
(-0.00259526 -0.000400808 0)
(-0.000344074 -0.00013441 0)
(0.00058606 0.000143764 0)
(0.000320232 0.000307063 0)
(2.33751e-06 9.09627e-05 0)
(-0.00201768 0.00187306 0)
(-0.00641608 0.00366702 0)
(-0.0125479 0.00490629 0)
(-0.0196985 0.00556061 0)
(-0.0272131 0.0057002 0)
(-0.0344879 0.00537536 0)
(-0.0409432 0.00459361 0)
(-0.046002 0.00334623 0)
(-0.0491089 0.00165293 0)
(-0.0497954 -0.000394377 0)
(-0.0477712 -0.00260544 0)
(-0.0430356 -0.00468714 0)
(-0.0359675 -0.00628253 0)
(-0.0273492 -0.00704469 0)
(-0.0183051 -0.00674055 0)
(-0.0101233 -0.00535735 0)
(-0.00396725 -0.00317995 0)
(-0.000522542 -0.000840675 0)
(0.000244826 0.00061481 0)
(-0.000277808 0.00168031 0)
(-0.0043899 0.0064351 0)
(-0.0118359 0.0106157 0)
(-0.0215395 0.0134411 0)
(-0.0324697 0.0148681 0)
(-0.0437364 0.0150143 0)
(-0.0544992 0.0139676 0)
(-0.0639443 0.0117518 0)
(-0.0712732 0.00838235 0)
(-0.0757375 0.00395576 0)
(-0.0767211 -0.0012663 0)
(-0.0738535 -0.0068071 0)
(-0.0671352 -0.0119834 0)
(-0.0570447 -0.0159818 0)
(-0.0445838 -0.0180171 0)
(-0.0312234 -0.0175532 0)
(-0.0187065 -0.0145398 0)
(-0.0086923 -0.00958874 0)
(-0.00231743 -0.00402874 0)
(8.95901e-05 6.79104e-05 0)
(-0.000532204 0.00454822 0)
(-0.00668598 0.0136251 0)
(-0.0170613 0.0208365 0)
(-0.0300779 0.0255161 0)
(-0.0443907 0.0277369 0)
(-0.0589351 0.0277079 0)
(-0.0727202 0.0255669 0)
(-0.0847901 0.021362 0)
(-0.0942096 0.0151482 0)
(-0.1001 0.00712444 0)
(-0.101722 -0.00224284 0)
(-0.0985912 -0.0121489 0)
(-0.0906154 -0.0214547 0)
(-0.0782286 -0.0288025 0)
(-0.0624871 -0.0328471 0)
(-0.0450778 -0.0326078 0)
(-0.0281573 -0.0278758 0)
(-0.0139623 -0.0195441 0)
(-0.0042819 -0.00969274 0)
(-3.65521e-05 -0.00145214 0)
(-0.000750609 0.00859683 0)
(-0.00874718 0.0232533 0)
(-0.0217878 0.0340525 0)
(-0.0377988 0.0407599 0)
(-0.0551427 0.0437361 0)
(-0.0726266 0.0433589 0)
(-0.0891758 0.0398438 0)
(-0.103765 0.0332697 0)
(-0.115384 0.0237278 0)
(-0.123056 0.011508 0)
(-0.125908 -0.00273553 0)
(-0.123276 -0.0178846 0)
(-0.114848 -0.0323361 0)
(-0.100851 -0.0441251 0)
(-0.0822295 -0.0512051 0)
(-0.060769 -0.0519299 0)
(-0.0390458 -0.0456844 0)
(-0.0200397 -0.0334727 0)
(-0.00647969 -0.018126 0)
(-0.00014257 -0.00399514 0)
(-0.000930376 0.0136703 0)
(-0.0104887 0.0350311 0)
(-0.0258159 0.0499284 0)
(-0.0444114 0.0588279 0)
(-0.0643944 0.0625491 0)
(-0.0844913 0.0617306 0)
(-0.103602 0.0567031 0)
(-0.120694 0.047579 0)
(-0.134733 0.0344613 0)
(-0.144672 0.0176829 0)
(-0.149491 -0.00198316 0)
(-0.148274 -0.0231636 0)
(-0.140371 -0.0438407 0)
(-0.125627 -0.061403 0)
(-0.104668 -0.0729375 0)
(-0.0792088 -0.0758203 0)
(-0.0521914 -0.0686254 0)
(-0.0274996 -0.0521319 0)
(-0.00917877 -0.0298665 0)
(-0.000263164 -0.00771354 0)
(-0.00106561 0.0195764 0)
(-0.0118359 0.0485766 0)
(-0.0289642 0.0680159 0)
(-0.0496202 0.0792751 0)
(-0.0717449 0.0837862 0)
(-0.0940332 0.0825417 0)
(-0.115415 0.0760296 0)
(-0.13491 0.0643952 0)
(-0.151516 0.0477148 0)
(-0.164154 0.0262875 0)
(-0.171659 0.000898505 0)
(-0.172846 -0.0269568 0)
(-0.166638 -0.0549354 0)
(-0.152323 -0.0797985 0)
(-0.129972 -0.0976242 0)
(-0.100945 -0.104441 0)
(-0.0683446 -0.0974277 0)
(-0.0370069 -0.076541 0)
(-0.0127317 -0.045769 0)
(-0.000442731 -0.0129361 0)
(-0.00114871 0.0260835 0)
(-0.0127173 0.0634199 0)
(-0.0310581 0.0877506 0)
(-0.0531176 0.101525 0)
(-0.0767268 0.106916 0)
(-0.100596 0.105358 0)
(-0.123737 0.0975416 0)
(-0.145279 0.0836485 0)
(-0.164319 0.0636852 0)
(-0.179815 0.0378271 0)
(-0.190527 0.00673591 0)
(-0.195022 -0.0281497 0)
(-0.191777 -0.0643232 0)
(-0.179418 -0.0980382 0)
(-0.157203 -0.124318 0)
(-0.125745 -0.137497 0)
(-0.0878707 -0.132624 0)
(-0.0491508 -0.107858 0)
(-0.0175283 -0.0670094 0)
(-0.000736471 -0.0201959 0)
(-0.00117545 0.0329247 0)
(-0.0130857 0.0790106 0)
(-0.0319647 0.108449 0)
(-0.0546343 0.124843 0)
(-0.0788762 0.131202 0)
(-0.103456 0.129488 0)
(-0.127512 0.120648 0)
(-0.150348 0.104915 0)
(-0.171235 0.0821934 0)
(-0.189269 0.0524524 0)
(-0.203253 0.0160872 0)
(-0.211632 -0.0257109 0)
(-0.212521 -0.0705257 0)
(-0.20388 -0.114358 0)
(-0.183958 -0.151314 0)
(-0.15217 -0.173854 0)
(-0.110381 -0.174129 0)
(-0.0642577 -0.147099 0)
(-0.0239708 -0.0950059 0)
(-0.00122024 -0.0302479 0)
(-0.00115253 0.0398205 0)
(-0.0129577 0.0947506 0)
(-0.031661 0.129328 0)
(-0.0540358 0.148323 0)
(-0.0778599 0.15566 0)
(-0.101989 0.153911 0)
(-0.125731 0.144343 0)
(-0.14862 0.127275 0)
(-0.170191 0.102507 0)
(-0.1898 0.0697505 0)
(-0.206465 0.0290181 0)
(-0.218701 -0.0189472 0)
(-0.224486 -0.0721047 0)
(-0.221263 -0.126619 0)
(-0.206228 -0.176073 0)
(-0.177223 -0.211202 0)
(-0.134318 -0.220712 0)
(-0.0821185 -0.194657 0)
(-0.032432 -0.131228 0)
(-0.00200744 -0.0440848 0)
(-0.00110792 0.0465287 0)
(-0.0124661 0.110063 0)
(-0.0303245 0.149557 0)
(-0.0514467 0.170921 0)
(-0.0736396 0.179068 0)
(-0.0958895 0.177264 0)
(-0.117721 0.167174 0)
(-0.138954 0.149259 0)
(-0.159468 0.123251 0)
(-0.179007 0.0886023 0)
(-0.196983 0.0448941 0)
(-0.212217 -0.00771782 0)
(-0.222891 -0.0680038 0)
(-0.22627 -0.13265 0)
(-0.218691 -0.195414 0)
(-0.196295 -0.245936 0)
(-0.156605 -0.269489 0)
(-0.101608 -0.249639 0)
(-0.0431479 -0.176827 0)
(-0.0032716 -0.062937 0)
(-0.00110601 0.0529295 0)
(-0.011927 0.124504 0)
(-0.0284329 0.168349 0)
(-0.0473777 0.191516 0)
(-0.0666289 0.200015 0)
(-0.0853778 0.197897 0)
(-0.10343 0.187304 0)
(-0.120949 0.168909 0)
(-0.138219 0.142438 0)
(-0.155454 0.107135 0)
(-0.172599 0.062159 0)
(-0.189155 0.0069951 0)
(-0.203742 -0.0580646 0)
(-0.213832 -0.130831 0)
(-0.215542 -0.206065 0)
(-0.203583 -0.273443 0)
(-0.172567 -0.315686 0)
(-0.120278 -0.309119 0)
(-0.0559904 -0.232021 0)
(-0.00526743 -0.0882223 0)
(-0.00127387 0.0591597 0)
(-0.0119289 0.137918 0)
(-0.0268642 0.185074 0)
(-0.0428187 0.208994 0)
(-0.0577824 0.216984 0)
(-0.0713013 0.213982 0)
(-0.0835727 0.202664 0)
(-0.0951691 0.183967 0)
(-0.10682 0.157682 0)
(-0.119252 0.122928 0)
(-0.133022 0.0785242 0)
(-0.148334 0.0233236 0)
(-0.164656 -0.0432854 0)
(-0.180276 -0.120706 0)
(-0.191697 -0.205509 0)
(-0.193029 -0.288901 0)
(-0.176331 -0.352948 0)
(-0.134118 -0.367611 0)
(-0.0700807 -0.295222 0)
(-0.00832715 -0.121378 0)
(-0.00184982 0.0658187 0)
(-0.0134597 0.150616 0)
(-0.0269746 0.199352 0)
(-0.0392349 0.222294 0)
(-0.0485103 0.228413 0)
(-0.0549869 0.223621 0)
(-0.0594327 0.211123 0)
(-0.0629133 0.192122 0)
(-0.066614 0.166501 0)
(-0.0717418 0.133344 0)
(-0.0794318 0.0912662 0)
(-0.0906116 0.0386727 0)
(-0.105723 -0.0259391 0)
(-0.12425 -0.103474 0)
(-0.143919 -0.192892 0)
(-0.159462 -0.288455 0)
(-0.161634 -0.374322 0)
(-0.137667 -0.417147 0)
(-0.083265 -0.362077 0)
(-0.0127831 -0.163491 0)
(-0.00328678 0.0743303 0)
(-0.0180849 0.163579 0)
(-0.0305645 0.211072 0)
(-0.0382844 0.230359 0)
(-0.0401726 0.232659 0)
(-0.0375488 0.224865 0)
(-0.0320105 0.210582 0)
(-0.0252135 0.191164 0)
(-0.0187856 0.166548 0)
(-0.0143331 0.135815 0)
(-0.0134463 0.0975068 0)
(-0.01766 0.0498037 0)
(-0.0283215 -0.00934468 0)
(-0.046243 -0.0820318 0)
(-0.0709854 -0.169589 0)
(-0.0992457 -0.270375 0)
(-0.122596 -0.373678 0)
(-0.124378 -0.448097 0)
(-0.0915516 -0.424652 0)
(-0.0187138 -0.214582 0)
(-0.00636419 0.0873944 0)
(-0.0280146 0.178253 0)
(-0.0392869 0.219861 0)
(-0.0405866 0.231581 0)
(-0.0323368 0.227553 0)
(-0.0177753 0.21541 0)
(0.000359345 0.198789 0)
(0.0197466 0.178925 0)
(0.0383724 0.155669 0)
(0.054359 0.128076 0)
(0.0658332 0.0947047 0)
(0.0708605 0.0537302 0)
(0.067407 0.00296494 0)
(0.0535147 -0.0602657 0)
(0.0276527 -0.138971 0)
(-0.00978072 -0.235626 0)
(-0.0537737 -0.34702 0)
(-0.0866208 -0.450319 0)
(-0.0885222 -0.470846 0)
(-0.0253078 -0.272261 0)
(-0.0125249 0.110609 0)
(-0.0452217 0.196705 0)
(-0.0514566 0.224535 0)
(-0.0408809 0.223114 0)
(-0.017045 0.209826 0)
(0.0139201 0.192189 0)
(0.0480053 0.173103 0)
(0.0823689 0.153189 0)
(0.114836 0.131969 0)
(0.143499 0.108394 0)
(0.166446 0.0810851 0)
(0.181606 0.0483863 0)
(0.186558 0.00832491 0)
(0.178632 -0.0416906 0)
(0.15475 -0.105191 0)
(0.112455 -0.187485 0)
(0.0511978 -0.293353 0)
(-0.0143194 -0.414485 0)
(-0.0643358 -0.48512 0)
(-0.0295907 -0.330459 0)
(-0.0216114 0.148418 0)
(-0.0652296 0.213122 0)
(-0.0493961 0.215066 0)
(-0.0130363 0.195086 0)
(0.035881 0.17161 0)
(0.0887261 0.149599 0)
(0.141265 0.129843 0)
(0.191053 0.111753 0)
(0.236457 0.0943071 0)
(0.276059 0.076338 0)
(0.308315 0.0566084 0)
(0.331386 0.033788 0)
(0.342834 0.00634979 0)
(0.339849 -0.0276598 0)
(0.318518 -0.0712343 0)
(0.274656 -0.130264 0)
(0.20217 -0.214988 0)
(0.10794 -0.334973 0)
(-0.00320631 -0.451462 0)
(-0.0232654 -0.378734 0)
(-0.0274721 0.229337 0)
(-0.036493 0.22312 0)
(0.04656 0.176951 0)
(0.127045 0.13874 0)
(0.205597 0.109499 0)
(0.277483 0.0878746 0)
(0.341783 0.0715769 0)
(0.398476 0.058581 0)
(0.447612 0.0473864 0)
(0.48895 0.0368463 0)
(0.52179 0.0260111 0)
(0.544919 0.014024 0)
(0.556393 6.53464e-06 0)
(0.553885 -0.0170358 0)
(0.533362 -0.0390871 0)
(0.490587 -0.0704551 0)
(0.41532 -0.120933 0)
(0.304904 -0.213375 0)
(0.12588 -0.348318 0)
(0.0236678 -0.37879 0)
(0.21444 0.135797 0)
(0.285138 0.0984498 0)
(0.444656 0.0569153 0)
(0.547914 0.036584 0)
(0.621662 0.024169 0)
(0.678248 0.0163206 0)
(0.722821 0.0113358 0)
(0.758411 0.00800674 0)
(0.786851 0.00557322 0)
(0.809034 0.0035712 0)
(0.825146 0.0016941 0)
(0.834861 -0.000271311 0)
(0.837312 -0.00250663 0)
(0.83119 -0.00505108 0)
(0.813548 -0.00850237 0)
(0.781941 -0.0135056 0)
(0.72408 -0.0231768 0)
(0.635276 -0.0406016 0)
(0.43131 -0.0912948 0)
(0.270899 -0.153523 0)
)
;

boundaryField
{
    movingWall
    {
        type            fixedValue;
        value           uniform (1 0 0);
    }
    fixedWalls
    {
        type            fixedValue;
        value           uniform (0 0 0);
    }
    frontAndBack
    {
        type            empty;
    }
}


// ************************************************************************* //
