/*--------------------------------*- C++ -*----------------------------------*\
  =========                 |
  \\      /  F ield         | OpenFOAM: The Open Source CFD Toolbox
   \\    /   O peration     | Website:  https://openfoam.org
    \\  /    A nd           | Version:  13
     \\/     M anipulation  |
\*---------------------------------------------------------------------------*/
FoamFile
{
    format      ascii;
    class       volScalarField;
    location    "41";
    object      p;
}
// * * * * * * * * * * * * * * * * * * * * * * * * * * * * * * * * * * * * * //

dimensions      [0 2 -2 0 0 0 0];

internalField   nonuniform List<scalar> 
400
(
4.50178e-08
-0.000572495
-0.0012161
-0.00171896
-0.00195929
-0.00188478
-0.00147058
-0.00070562
0.000401218
0.00180588
0.00341461
0.00507492
0.00659095
0.00775101
0.0083797
0.00839553
0.00785524
0.0069688
0.00604792
0.00549425
0.000569878
-2.0397e-05
-0.000569792
-0.000957152
-0.00113211
-0.00106206
-0.000726067
-0.000109335
0.000788685
0.00193937
0.00326971
0.00466004
0.00594061
0.00692972
0.00747415
0.00750169
0.00705912
0.00631874
0.00554316
0.00497255
0.00124562
0.000492903
-8.68146e-05
-0.000441478
-0.00060626
-0.000576386
-0.000337366
0.000132502
0.000849605
0.0018068
0.00295476
0.00419171
0.00536435
0.00629373
0.00681917
0.00685282
0.00642067
0.0056681
0.00480885
0.0040371
0.0017405
0.000763616
7.35837e-05
-0.000322036
-0.000537226
-0.000592834
-0.000478323
-0.000160247
0.000399939
0.001222
0.0022816
0.00349279
0.00470163
0.00570965
0.00631932
0.00639808
0.00593344
0.0050505
0.00394833
0.00284436
0.00179539
0.000595647
-0.000227768
-0.0007049
-0.00101823
-0.00120733
-0.00125945
-0.00112309
-0.000730583
-2.79093e-05
0.000991678
0.00226353
0.00363001
0.00486119
0.00569863
0.00593227
0.00548035
0.00443544
0.00299988
0.00146204
0.00119464
-0.000203096
-0.00116335
-0.00175276
-0.00221148
-0.00259074
-0.00286934
-0.00297128
-0.002792
-0.00223299
-0.00124413
0.000150468
0.00179281
0.0034198
0.00469019
0.0052747
0.00497187
0.00380564
0.00197897
-0.000104092
-0.000241661
-0.00180015
-0.0028923
-0.00362227
-0.00427776
-0.0049167
-0.00550514
-0.00593761
-0.00606463
-0.00572851
-0.00480697
-0.00328522
-0.00127038
0.000946665
0.00292626
0.00416984
0.00427924
0.00313552
0.000902577
-0.00185629
-0.00265197
-0.00432638
-0.00554129
-0.00643932
-0.00734715
-0.00832778
-0.00933394
-0.0102288
-0.0108113
-0.0108505
-0.0101336
-0.00853904
-0.00610709
-0.00311228
-8.64482e-05
0.00225502
0.00321263
0.00239525
-0.000177402
-0.00375299
-0.00612137
-0.00786172
-0.00918476
-0.0102718
-0.011483
-0.0128894
-0.0144345
-0.0159529
-0.0171897
-0.0178277
-0.0175354
-0.0160428
-0.0132531
-0.00935753
-0.00493605
-0.000941438
0.00150805
0.00155455
-0.00113719
-0.00564684
-0.0106715
-0.0124237
-0.0138275
-0.0151021
-0.0166422
-0.0185358
-0.0207272
-0.0230305
-0.0251405
-0.0266492
-0.0270841
-0.0259776
-0.0230343
-0.0182541
-0.0121678
-0.00592217
-0.00114233
0.000602978
-0.00173144
-0.0071952
-0.0162605
-0.0179653
-0.0193957
-0.0208062
-0.0226415
-0.0250234
-0.0279114
-0.0311115
-0.0342775
-0.0369139
-0.0383953
-0.0380067
-0.0352841
-0.0298336
-0.0220052
-0.0130065
-0.00495987
-0.000375626
-0.00151609
-0.00772074
-0.0228029
-0.02439
-0.0257427
-0.0271484
-0.0291435
-0.0319107
-0.0354424
-0.0395494
-0.0438549
-0.0477847
-0.05058
-0.0513772
-0.0491635
-0.043394
-0.0339889
-0.0219777
-0.00980599
-0.00102484
0.000279972
-0.00600007
-0.0302225
-0.0315862
-0.0326696
-0.033792
-0.0356681
-0.0385799
-0.042569
-0.047455
-0.0528343
-0.0580627
-0.0622511
-0.0643106
-0.0630223
-0.057332
-0.0466929
-0.031705
-0.0148012
-0.000417149
0.00496553
2.27285e-05
-0.03856
-0.0394894
-0.0399612
-0.0403269
-0.041635
-0.0443096
-0.0484456
-0.0538594
-0.0601059
-0.0664654
-0.0719295
-0.0752215
-0.0748704
-0.0694214
-0.0578071
-0.0400022
-0.0180233
0.00327947
0.0146985
0.0135556
-0.0481748
-0.048157
-0.0474035
-0.0462841
-0.0464121
-0.0483713
-0.0522815
-0.0579132
-0.0647394
-0.0719354
-0.0783607
-0.0825613
-0.0828323
-0.0773739
-0.0646453
-0.043937
-0.0165435
0.0130188
0.032931
0.0392807
-0.060235
-0.0579577
-0.0548672
-0.0512135
-0.0494272
-0.0501784
-0.0535204
-0.0590937
-0.0662201
-0.0739188
-0.0808795
-0.0854535
-0.085707
-0.0795199
-0.064942
-0.0406113
-0.00697892
0.0328168
0.0647937
0.0836767
-0.0774814
-0.0694732
-0.0620875
-0.0545495
-0.050139
-0.0493251
-0.0519045
-0.0572611
-0.0644863
-0.072385
-0.07944
-0.0837784
-0.0832185
-0.075283
-0.0576214
-0.0282113
0.0133524
0.066661
0.115752
0.154807
-0.108926
-0.0850401
-0.0697734
-0.0563916
-0.0485411
-0.0458812
-0.0476243
-0.0527151
-0.0599172
-0.0677771
-0.0745524
-0.0781401
-0.0761044
-0.0655426
-0.0436433
-0.00744512
0.0447431
0.114933
0.188078
0.263281
-0.168693
-0.100746
-0.0730932
-0.0522882
-0.0413103
-0.0376998
-0.0394421
-0.0448655
-0.0524158
-0.060447
-0.067074
-0.0700479
-0.0666876
-0.0537885
-0.0278899
0.0154098
0.0800715
0.17276
0.285854
0.445985
-0.402754
-0.139031
-0.0734592
-0.0447302
-0.0305719
-0.0266176
-0.0290857
-0.0353736
-0.0436541
-0.0522075
-0.0591241
-0.0621456
-0.0586176
-0.0452141
-0.0174509
0.0310786
0.108496
0.236657
0.427487
0.79368
)
;

boundaryField
{
    movingWall
    {
        type            zeroGradient;
    }
    fixedWalls
    {
        type            zeroGradient;
    }
    frontAndBack
    {
        type            empty;
    }
}


// ************************************************************************* //
