/*--------------------------------*- C++ -*----------------------------------*\
  =========                 |
  \\      /  F ield         | OpenFOAM: The Open Source CFD Toolbox
   \\    /   O peration     | Website:  https://openfoam.org
    \\  /    A nd           | Version:  13
     \\/     M anipulation  |
\*---------------------------------------------------------------------------*/
FoamFile
{
    format      ascii;
    class       volScalarField;
    location    "43";
    object      p;
}
// * * * * * * * * * * * * * * * * * * * * * * * * * * * * * * * * * * * * * //

dimensions      [0 2 -2 0 0 0 0];

internalField   nonuniform List<scalar> 
400
(
2.92649e-08
-0.000572505
-0.00121609
-0.00171894
-0.0019593
-0.00188481
-0.00147061
-0.000705633
0.000401201
0.00180584
0.00341456
0.00507488
0.00659092
0.00775098
0.00837967
0.00839549
0.00785522
0.00696882
0.00604796
0.00549431
0.000569867
-2.04228e-05
-0.000569812
-0.000957136
-0.00113209
-0.00106207
-0.000726104
-0.000109369
0.000788661
0.00193934
0.00326967
0.00466
0.00594058
0.0069297
0.00747413
0.00750167
0.0070591
0.00631874
0.00554318
0.00497258
0.00124563
0.000492898
-8.68494e-05
-0.000441498
-0.00060625
-0.000576379
-0.000337386
0.000132466
0.000849571
0.00180678
0.00295474
0.00419169
0.00536433
0.00629372
0.00681916
0.0068528
0.00642065
0.00566808
0.00480884
0.0040371
0.0017405
0.000763638
7.35688e-05
-0.000322074
-0.000537246
-0.000592836
-0.000478331
-0.000160272
0.000399906
0.00122197
0.00228158
0.00349278
0.00470163
0.00570965
0.00631931
0.00639806
0.00593341
0.00505047
0.00394831
0.00284434
0.00179535
0.000595658
-0.000227763
-0.000704928
-0.00101827
-0.00120734
-0.00125946
-0.0011231
-0.000730607
-2.79383e-05
0.000991654
0.00226352
0.00363001
0.00486119
0.00569862
0.00593225
0.00548032
0.00443541
0.00299985
0.00146201
0.00119459
-0.00020312
-0.00116335
-0.00175278
-0.00221151
-0.00259077
-0.00286936
-0.00297129
-0.00279202
-0.00223302
-0.00124415
0.000150447
0.0017928
0.00341979
0.00469018
0.00527468
0.00497185
0.00380562
0.00197894
-0.000104124
-0.000241689
-0.00180019
-0.00289233
-0.00362228
-0.00427778
-0.00491672
-0.00550515
-0.00593761
-0.00606463
-0.00572852
-0.00480699
-0.00328524
-0.0012704
0.000946647
0.00292625
0.00416982
0.00427921
0.00313549
0.000902546
-0.00185633
-0.00265197
-0.00432643
-0.00554133
-0.00643934
-0.00734717
-0.00832779
-0.00933395
-0.0102288
-0.0108113
-0.0108505
-0.0101336
-0.00853906
-0.00610712
-0.00311231
-8.64751e-05
0.00225499
0.0032126
0.00239522
-0.000177434
-0.00375303
-0.00612137
-0.00786174
-0.0091848
-0.0102718
-0.011483
-0.0128894
-0.0144345
-0.0159529
-0.0171897
-0.0178277
-0.0175354
-0.0160428
-0.0132531
-0.00935756
-0.00493609
-0.000941472
0.00150802
0.00155452
-0.00113722
-0.00564687
-0.0106715
-0.0124237
-0.0138275
-0.0151021
-0.0166422
-0.0185358
-0.0207272
-0.0230305
-0.0251405
-0.0266492
-0.0270841
-0.0259776
-0.0230343
-0.0182542
-0.0121678
-0.00592221
-0.00114236
0.000602951
-0.00173146
-0.00719522
-0.0162605
-0.0179654
-0.0193957
-0.0208062
-0.0226415
-0.0250234
-0.0279114
-0.0311115
-0.0342775
-0.0369139
-0.0383954
-0.0380067
-0.0352842
-0.0298336
-0.0220052
-0.0130065
-0.00495989
-0.000375646
-0.00151611
-0.00772075
-0.022803
-0.02439
-0.0257427
-0.0271485
-0.0291435
-0.0319107
-0.0354425
-0.0395494
-0.0438549
-0.0477847
-0.05058
-0.0513772
-0.0491635
-0.043394
-0.0339889
-0.0219778
-0.00980601
-0.00102485
0.000279965
-0.00600008
-0.0302226
-0.0315863
-0.0326696
-0.0337921
-0.0356682
-0.0385799
-0.042569
-0.0474551
-0.0528343
-0.0580627
-0.0622511
-0.0643106
-0.0630223
-0.0573321
-0.0466929
-0.031705
-0.0148012
-0.000417154
0.00496552
2.27256e-05
-0.03856
-0.0394895
-0.0399613
-0.040327
-0.041635
-0.0443096
-0.0484456
-0.0538594
-0.0601059
-0.0664655
-0.0719295
-0.0752216
-0.0748704
-0.0694214
-0.0578071
-0.0400022
-0.0180233
0.00327947
0.0146985
0.0135556
-0.0481748
-0.048157
-0.0474035
-0.0462842
-0.0464121
-0.0483713
-0.0522815
-0.0579132
-0.0647394
-0.0719354
-0.0783607
-0.0825613
-0.0828323
-0.0773739
-0.0646453
-0.043937
-0.0165435
0.0130188
0.032931
0.0392807
-0.060235
-0.0579577
-0.0548672
-0.0512135
-0.0494272
-0.0501785
-0.0535204
-0.0590937
-0.0662201
-0.0739188
-0.0808795
-0.0854535
-0.085707
-0.0795199
-0.064942
-0.0406113
-0.00697893
0.0328167
0.0647937
0.0836767
-0.0774815
-0.0694733
-0.0620875
-0.0545495
-0.050139
-0.0493251
-0.0519045
-0.0572611
-0.0644863
-0.072385
-0.07944
-0.0837784
-0.0832185
-0.075283
-0.0576215
-0.0282113
0.0133524
0.0666609
0.115752
0.154807
-0.108926
-0.0850402
-0.0697734
-0.0563916
-0.0485411
-0.0458812
-0.0476243
-0.0527151
-0.0599173
-0.0677771
-0.0745524
-0.0781402
-0.0761045
-0.0655427
-0.0436433
-0.00744515
0.044743
0.114933
0.188078
0.263281
-0.168693
-0.100746
-0.0730932
-0.0522882
-0.0413103
-0.0376998
-0.0394421
-0.0448655
-0.0524159
-0.060447
-0.067074
-0.0700479
-0.0666876
-0.0537885
-0.0278899
0.0154098
0.0800715
0.17276
0.285854
0.445985
-0.402754
-0.139031
-0.0734593
-0.0447302
-0.0305719
-0.0266176
-0.0290857
-0.0353736
-0.0436542
-0.0522075
-0.0591241
-0.0621457
-0.0586176
-0.0452141
-0.0174509
0.0310786
0.108495
0.236657
0.427487
0.79368
)
;

boundaryField
{
    movingWall
    {
        type            zeroGradient;
    }
    fixedWalls
    {
        type            zeroGradient;
    }
    frontAndBack
    {
        type            empty;
    }
}


// ************************************************************************* //
