/*--------------------------------*- C++ -*----------------------------------*\
  =========                 |
  \\      /  F ield         | OpenFOAM: The Open Source CFD Toolbox
   \\    /   O peration     | Website:  https://openfoam.org
    \\  /    A nd           | Version:  13
     \\/     M anipulation  |
\*---------------------------------------------------------------------------*/
FoamFile
{
    format      ascii;
    class       volScalarField;
    location    "11";
    object      p;
}
// * * * * * * * * * * * * * * * * * * * * * * * * * * * * * * * * * * * * * //

dimensions      [0 2 -2 0 0 0 0];

internalField   nonuniform List<scalar> 
400
(
-1.16587e-07
-0.000563959
-0.00119404
-0.00168256
-0.00190906
-0.00182227
-0.00139833
-0.000627138
0.000481765
0.0018844
0.00348804
0.00514239
0.00665425
0.00781462
0.0084498
0.00847819
0.00795434
0.0070851
0.00617539
0.00562671
0.000561492
-1.9856e-05
-0.000557585
-0.000932352
-0.00109431
-0.00101151
-0.000663943
-3.79625e-05
0.000866015
0.00201901
0.00334855
0.00473655
0.00601555
0.00700624
0.007557
0.00759567
0.00716723
0.00644099
0.00567537
0.00510958
0.00122347
0.000482743
-8.47782e-05
-0.000427061
-0.000578281
-0.000533891
-0.000280341
0.000202617
0.000929896
0.00189342
0.00304386
0.00428076
0.00545289
0.00638385
0.00691483
0.00695843
0.00653928
0.00580008
0.00495131
0.00418579
0.00170543
0.000744119
6.80677e-05
-0.00031392
-0.00051334
-0.000550978
-0.000417454
-8.13105e-05
0.000493844
0.00132617
0.00239072
0.00360272
0.00481032
0.00581807
0.00643099
0.00651772
0.00606505
0.00519573
0.00410589
0.0030112
0.0017535
0.000572492
-0.000234797
-0.000695961
-0.000989751
-0.00115562
-0.00118247
-0.00102149
-0.000608037
0.000109517
0.00113634
0.00240911
0.00377199
0.00499886
0.00583476
0.0060721
0.00562951
0.00459784
0.00317664
0.00165165
0.00115684
-0.000220128
-0.00116218
-0.00173237
-0.00216631
-0.00251532
-0.00276054
-0.00282963
-0.00262205
-0.00204293
-0.00104597
0.000351157
0.00198659
0.00360291
0.00486383
0.00544428
0.00514511
0.00398977
0.00217871
0.000112079
-0.000261073
-0.0017983
-0.00287052
-0.00357729
-0.00420149
-0.00480161
-0.00534686
-0.00573649
-0.00582624
-0.00546279
-0.00452477
-0.00300491
-0.00100192
0.00119582
0.00315457
0.00438209
0.00448516
0.00334657
0.0011286
-0.00161085
-0.00263736
-0.00429176
-0.00548558
-0.00635607
-0.00722533
-0.00815756
-0.00910961
-0.00995047
-0.0104855
-0.0104895
-0.00975334
-0.008158
-0.00574191
-0.00277583
0.000215439
0.00252494
0.00346138
0.00263873
7.72244e-05
-0.00347735
-0.00605829
-0.00778166
-0.00908332
-0.0101387
-0.0113041
-0.0126524
-0.0141323
-0.0155854
-0.0167641
-0.0173583
-0.0170413
-0.0155464
-0.012776
-0.00891797
-0.00454499
-0.000600186
0.00180941
0.00183526
-0.000853514
-0.00534304
-0.0105492
-0.0122892
-0.0136726
-0.0149124
-0.0164006
-0.0182279
-0.0203445
-0.0225726
-0.0246154
-0.0260729
-0.0264781
-0.0253688
-0.0224469
-0.0177108
-0.011684
-0.00550403
-0.000783236
0.000922798
-0.00142152
-0.00686977
-0.0160742
-0.0177732
-0.0191859
-0.0205607
-0.0223406
-0.0246508
-0.0274575
-0.030576
-0.0336695
-0.0362513
-0.0377029
-0.0373206
-0.0346145
-0.0292104
-0.0214469
-0.0125229
-0.00454938
-2.17598e-05
-0.0011879
-0.00738634
-0.0225549
-0.0241438
-0.0254839
-0.0268563
-0.0287965
-0.0314906
-0.0349389
-0.0389621
-0.0431946
-0.0470718
-0.0498407
-0.0506326
-0.0484563
-0.0427386
-0.0334
-0.0214642
-0.00936901
-0.000654018
0.000611032
-0.00567645
-0.0299226
-0.0312966
-0.0323752
-0.0334709
-0.0352973
-0.0381392
-0.0420467
-0.0468511
-0.0521614
-0.0573444
-0.0615175
-0.0635909
-0.0623432
-0.0567104
-0.0461378
-0.0312191
-0.0143835
-6.20356e-05
0.00527475
0.000309427
-0.0382248
-0.0391732
-0.0396508
-0.0400009
-0.0412687
-0.04388
-0.0479387
-0.0532748
-0.0594581
-0.0657811
-0.0712424
-0.0745649
-0.0742703
-0.0688918
-0.0573491
-0.0396079
-0.0176828
0.00357353
0.0149526
0.0137766
-0.0478271
-0.0478362
-0.0471015
-0.0459814
-0.0460813
-0.0479847
-0.0518213
-0.0573778
-0.0641447
-0.0713116
-0.0777455
-0.0819924
-0.0823383
-0.0769682
-0.0643237
-0.0436811
-0.0163303
0.0132055
0.033094
0.039411
-0.0599026
-0.0576592
-0.0546017
-0.0509638
-0.0491613
-0.0498617
-0.0531298
-0.0586263
-0.0656924
-0.0733644
-0.0803409
-0.0849729
-0.085317
-0.0792358
-0.0647585
-0.040504
-0.00691481
0.0328682
0.06484
0.0837031
-0.0771957
-0.069227
-0.061888
-0.0543805
-0.0499612
-0.0490951
-0.0515957
-0.0568684
-0.0640278
-0.0718972
-0.0789688
-0.0833701
-0.0829091
-0.0750921
-0.0575455
-0.028226
0.0132825
0.0665892
0.115684
0.154734
-0.108712
-0.0848686
-0.06966
-0.0563166
-0.0484566
-0.0457389
-0.0473944
-0.0523927
-0.0595218
-0.0673465
-0.0741344
-0.0777826
-0.0758445
-0.0654047
-0.0436264
-0.00752734
0.0445994
0.114772
0.187927
0.263129
-0.168547
-0.100635
-0.0730489
-0.0522837
-0.0412949
-0.0376233
-0.0392736
-0.0445999
-0.0520717
-0.0600613
-0.0666936
-0.0697207
-0.0664567
-0.0536654
-0.0278832
0.0153168
0.079912
0.172573
0.285665
0.445807
-0.402612
-0.138934
-0.0734334
-0.0447511
-0.0305865
-0.0265749
-0.0289535
-0.0351444
-0.0433436
-0.051849
-0.0587613
-0.0618231
-0.0583714
-0.0450771
-0.0174244
0.0310092
0.108358
0.236487
0.427311
0.79351
)
;

boundaryField
{
    movingWall
    {
        type            zeroGradient;
    }
    fixedWalls
    {
        type            zeroGradient;
    }
    frontAndBack
    {
        type            empty;
    }
}


// ************************************************************************* //
