/*--------------------------------*- C++ -*----------------------------------*\
  =========                 |
  \\      /  F ield         | OpenFOAM: The Open Source CFD Toolbox
   \\    /   O peration     | Website:  https://openfoam.org
    \\  /    A nd           | Version:  13
     \\/     M anipulation  |
\*---------------------------------------------------------------------------*/
FoamFile
{
    format      ascii;
    class       surfaceScalarField;
    location    "11";
    object      phi;
}
// * * * * * * * * * * * * * * * * * * * * * * * * * * * * * * * * * * * * * //

dimensions      [0 3 -1 0 0 0 0];

internalField   nonuniform List<scalar> 
760
(
4.10183e-06
-4.10119e-06
-3.89551e-05
4.3057e-05
-0.000130148
9.11926e-05
-0.000254095
0.000123947
-0.000395237
0.000141142
-0.00054031
0.000145073
-0.000677558
0.000137249
-0.00079541
0.000117851
-0.000881904
8.64944e-05
-0.000925371
4.3467e-05
-0.000916221
-9.1499e-06
-0.000849831
-6.63902e-05
-0.000729119
-0.000120712
-0.000566552
-0.000162567
-0.000383969
-0.000182583
-0.000209615
-0.000174354
-7.22943e-05
-0.000137321
6.61169e-06
-7.8906e-05
2.30853e-05
-1.64736e-05
2.30853e-05
-4.66413e-05
4.25402e-05
-0.000207621
0.000204037
-0.000468
0.000351572
-0.000795831
0.000451777
-0.00115772
0.000503031
-0.0015227
0.000510052
-0.00186175
0.000476302
-0.00214648
0.000402575
-0.00234899
0.000289008
-0.00244392
0.000138394
-0.00241244
-4.06306e-05
-0.00224687
-0.000231953
-0.00195629
-0.000411291
-0.00156902
-0.000549837
-0.00113206
-0.000619545
-0.000705161
-0.000601254
-0.000349304
-0.000493178
-0.000111008
-0.000317202
-6.14151e-06
-0.00012134
1.69438e-05
-0.000109931
0.000152471
-0.000399658
0.000493764
-0.000823012
0.000774925
-0.00133142
0.000960189
-0.00187877
0.00105037
-0.00242229
0.00105357
-0.00292136
0.000975377
-0.00333634
0.000817553
-0.00362906
0.000581726
-0.00376568
0.000275012
-0.00372153
-8.47729e-05
-0.00348698
-0.000466508
-0.00307336
-0.000824912
-0.00251683
-0.00110636
-0.00187837
-0.001258
-0.00123761
-0.00124202
-0.00067918
-0.00105161
-0.000272783
-0.000723599
-5.21815e-05
-0.000341941
-3.52377e-05
-0.000170523
0.000322993
-0.000584724
0.000907966
-0.00116189
0.00135209
-0.00183486
0.00163316
-0.00254638
0.00176189
-0.00324552
0.00175271
-0.00388443
0.00161429
-0.00441653
0.00134965
-0.00479697
0.000962161
-0.00498551
0.000463553
-0.00495151
-0.000118769
-0.00468005
-0.000737977
-0.00417896
-0.001326
-0.00348463
-0.00180069
-0.00266474
-0.00207789
-0.00181459
-0.00209217
-0.00104358
-0.00182261
-0.000451606
-0.00131558
-0.000101492
-0.000692055
-0.000136729
-0.000224697
0.00054769
-0.000751957
0.00143523
-0.00146886
0.00206899
-0.00229028
0.00245459
-0.0031494
0.00262101
-0.00398989
0.0025932
-0.00476009
0.00238449
-0.00540974
0.0019993
-0.0058896
0.00144202
-0.00615356
0.000727512
-0.00616313
-0.0001092
-0.00589327
-0.00100783
-0.00534131
-0.00187796
-0.00453562
-0.00260638
-0.00354359
-0.00306992
-0.00247348
-0.00316228
-0.00146381
-0.00283228
-0.00065597
-0.00212342
-0.000155544
-0.00119248
-0.000292273
-0.000270568
0.000818258
-0.000894737
0.0020594
-0.00173239
0.00290665
-0.00268309
0.00340528
-0.00367267
0.00361059
-0.004642
0.00356254
-0.00553854
0.00328103
-0.00631116
0.00277193
-0.00690815
0.00203901
-0.00727774
0.0010971
-0.00737196
-1.49811e-05
-0.00715038
-0.00122941
-0.00659278
-0.00243555
-0.00571009
-0.00348908
-0.00456002
-0.00421999
-0.00325821
-0.00446409
-0.00197511
-0.00411538
-0.000907067
-0.00319146
-0.000221593
-0.00187795
-0.000513867
-0.000306328
0.00112459
-0.001007
0.00276007
-0.00194112
0.00384076
-0.00299659
0.00446076
-0.00409458
0.00470858
-0.00517575
0.00464371
-0.00618947
0.00429475
-0.00708659
0.00366905
-0.00781528
0.00276769
-0.00831961
0.00160143
-0.00853999
0.000205394
-0.00842048
-0.00134892
-0.0079153
-0.00294074
-0.00700788
-0.0043965
-0.00573324
-0.00549463
-0.00420226
-0.00599507
-0.00261352
-0.00570412
-0.00123045
-0.00457453
-0.000309103
-0.0027993
-0.00082297
-0.00033013
0.00145472
-0.00108277
0.00351271
-0.00208327
0.00484125
-0.00321181
0.0055893
-0.00438751
0.00588427
-0.00555326
0.00580946
-0.00666313
0.00540462
-0.00767303
0.00467894
-0.00853435
0.00362901
-0.00919003
0.00225711
-0.00957297
0.000588334
-0.00960916
-0.00131273
-0.00922573
-0.00332417
-0.00836926
-0.00525297
-0.00703575
-0.00682813
-0.00531047
-0.00772036
-0.00340397
-0.00761062
-0.00165091
-0.00632759
-0.00042865
-0.00402156
-0.00125162
-0.000340724
0.00179544
-0.00111755
0.00428954
-0.0021488
0.00587251
-0.00331043
0.00675093
-0.00452176
0.00709561
-0.00573011
0.00701781
-0.00689687
0.00657138
-0.00798652
0.00576859
-0.00895818
0.00460068
-0.00975919
0.00305812
-0.0103206
0.00114974
-0.0105562
-0.00107713
-0.0103677
-0.00351269
-0.00965971
-0.00596094
-0.0083731
-0.00811473
-0.00653889
-0.00955457
-0.00434656
-0.00980296
-0.0021874
-0.00848675
-0.000591658
-0.0056173
-0.00184328
-0.000338596
0.00213404
-0.00111098
0.00506192
-0.00213354
0.00689508
-0.00328039
0.00789777
-0.00447292
0.00828814
-0.0056648
0.00820969
-0.0068273
0.00773388
-0.00793711
0.0068784
-0.00896635
0.00562992
-0.00987405
0.00396582
-0.0105987
0.00187441
-0.0110521
-0.000623758
-0.0111201
-0.00344469
-0.010668
-0.00641302
-0.00957104
-0.0092117
-0.00777529
-0.0113503
-0.00539914
-0.0121791
-0.00284539
-0.0110405
-0.000810007
-0.00765268
-0.00265329
-0.00032753
0.00246157
-0.00107046
0.00580485
-0.00204455
0.00786917
-0.00312308
0.00897629
-0.00423137
0.00939643
-0.0053316
0.00930992
-0.0064075
0.00880978
-0.00745142
0.00792232
-0.00845362
0.00663212
-0.00939257
0.00490477
-0.0102256
0.00270739
-0.0108742
2.49043e-05
-0.011229
-0.00308993
-0.0111269
-0.00651514
-0.0103801
-0.00995843
-0.0088277
-0.0129027
-0.00645844
-0.0145484
-0.00360457
-0.0138944
-0.0010945
-0.0101627
-0.00374779
-0.000316682
0.00277825
-0.00101536
0.00650353
-0.00190593
0.00875973
-0.00286055
0.00993092
-0.00381149
0.0103474
-0.00473287
0.0102313
-0.00562389
0.0097008
-0.00649555
0.00879399
-0.00736011
0.00749668
-0.00822149
0.00576615
-0.00906439
0.00355029
-0.00984508
0.000805594
-0.0104625
-0.00247247
-0.0107601
-0.00621755
-0.0105066
-0.0102119
-0.00943213
-0.0139772
-0.00734695
-0.0166335
-0.00440209
-0.0168392
-0.00145079
-0.0131141
-0.00519857
-0.000323596
0.00310184
-0.000981804
0.00716174
-0.00176373
0.00954166
-0.00254017
0.0107074
-0.00325662
0.0110638
-0.0039055
0.0108802
-0.00450587
0.0103012
-0.00509001
0.00937813
-0.00569413
0.00810079
-0.00635033
0.00642235
-0.00707739
0.00427734
-0.0078681
0.00159631
-0.00866655
-0.00167403
-0.00934425
-0.00553984
-0.00966682
-0.00988935
-0.00928554
-0.0143585
-0.00781574
-0.0181033
-0.00511523
-0.0195397
-0.00187094
-0.0163583
-0.00706952
-0.00037904
0.00348088
-0.0010278
0.0078105
-0.00168792
0.0102018
-0.00223241
0.0112518
-0.00263334
0.0114647
-0.00291256
0.0111594
-0.00311551
0.0105041
-0.0032981
0.00956073
-0.00352006
0.00832275
-0.00384012
0.00674241
-0.00431015
0.00474737
-0.00496522
0.00225139
-0.0058045
-0.000834753
-0.00676002
-0.00458433
-0.00764529
-0.00900408
-0.00809581
-0.013908
-0.00756705
-0.0186321
-0.00555021
-0.0215566
-0.00231945
-0.0195891
-0.00938897
-0.000535442
0.00401633
-0.00123669
0.00851174
-0.00176425
0.0107293
-0.00201088
0.0114985
-0.00200126
0.0114551
-0.00180455
0.0109627
-0.00150132
0.0102009
-0.0011732
0.00923261
-0.000901062
0.00805061
-0.000765228
0.00660658
-0.000844391
0.00482653
-0.00121146
0.00261845
-0.00192219
-0.000124022
-0.00298762
-0.0035189
-0.00431815
-0.00767354
-0.00561967
-0.0126065
-0.0062835
-0.0179683
-0.00543984
-0.0224002
-0.00271235
-0.0223166
-0.0121013
-0.000874889
0.00489122
-0.0017031
0.00933995
-0.00204792
0.0110742
-0.0018773
0.0113279
-0.00131621
0.010894
-0.000506659
0.0101531
0.000426157
0.00926808
0.00137482
0.00828394
0.00224189
0.00718355
0.00293301
0.00591545
0.00335193
0.00440761
0.00339842
0.00257196
0.00297028
0.000304122
0.00197955
-0.00252816
0.000392413
-0.00608641
-0.0016521
-0.010562
-0.0036315
-0.0159889
-0.00443256
-0.0215992
-0.00288604
-0.0238631
-0.0149874
-0.00149964
0.00639085
-0.00242727
0.0102676
-0.00236146
0.0110084
-0.00149672
0.0104631
-0.000135649
0.00953297
0.0014826
0.00853488
0.00318836
0.00756232
0.00485736
0.00661494
0.00638771
0.0056532
0.00768344
0.00461972
0.00864372
0.00344733
0.00915566
0.00206002
0.00908826
0.000371526
0.00829863
-0.00173854
0.00664031
-0.00442809
0.00405346
-0.00797513
0.000814512
-0.0127499
-0.00202153
-0.0187631
-0.00250886
-0.0233758
-0.0174962
-0.00234289
0.00873375
-0.00282841
0.0107531
-0.00160448
0.00978442
0.000542302
0.00831635
0.00307724
0.00699803
0.00570302
0.0059091
0.00825446
0.00501088
0.0106311
0.00423826
0.0127572
0.00352714
0.0145584
0.0028185
0.015949
0.00205678
0.0168222
0.00118674
0.0170413
0.000152469
0.0164426
-0.00113985
0.0148111
-0.00279663
0.0119112
-0.00507523
0.00763145
-0.00847013
0.00259996
-0.0137317
-0.000913814
-0.019862
-0.01841
-0.00200126
0.010735
0.00035789
0.00839395
0.00431432
0.00582798
0.00832104
0.00430963
0.0120693
0.00324981
0.015462
0.00251632
0.0184782
0.00199472
0.0211193
0.00159713
0.0233807
0.00126572
0.0252388
0.000960439
0.0266449
0.000650634
0.0275198
0.000311897
0.0277524
-8.01447e-05
0.0271907
-0.000578112
0.0256114
-0.00121738
0.0226846
-0.0021484
0.0179432
-0.00372877
0.0109447
-0.00673308
0.00302221
-0.0119395
-0.0153878
0.010735
0.019129
0.0249569
0.0292666
0.0325164
0.0350327
0.0370274
0.0386246
0.0398903
0.0408507
0.0415014
0.0418133
0.0417331
0.041155
0.0399376
0.0377892
0.0340604
0.0273274
0.0153878
)
;

boundaryField
{
    movingWall
    {
        type            calculated;
        value           uniform 0;
    }
    fixedWalls
    {
        type            calculated;
        value           uniform 0;
    }
    frontAndBack
    {
        type            empty;
    }
}


// ************************************************************************* //
