/*--------------------------------*- C++ -*----------------------------------*\
  =========                 |
  \\      /  F ield         | OpenFOAM: The Open Source CFD Toolbox
   \\    /   O peration     | Website:  https://openfoam.org
    \\  /    A nd           | Version:  13
     \\/     M anipulation  |
\*---------------------------------------------------------------------------*/
FoamFile
{
    format      ascii;
    class       surfaceScalarField;
    location    "11";
    object      phi_0;
}
// * * * * * * * * * * * * * * * * * * * * * * * * * * * * * * * * * * * * * //

dimensions      [0 3 -1 0 0 0 0];

internalField   nonuniform List<scalar> 
760
(
4.10281e-06
-4.09751e-06
-3.89537e-05
4.30565e-05
-0.000130142
9.11885e-05
-0.000254083
0.000123941
-0.000395217
0.000141134
-0.000540281
0.000145065
-0.000677522
0.000137241
-0.000795367
0.000117845
-0.000881857
8.64901e-05
-0.000925322
4.34658e-05
-0.000916175
-9.14753e-06
-0.000849791
-6.63843e-05
-0.000729088
-0.000120703
-0.000566531
-0.000162556
-0.000383958
-0.000182573
-0.000209613
-0.000174346
-7.22971e-05
-0.000137316
6.60757e-06
-7.89047e-05
2.3083e-05
-1.64754e-05
2.30829e-05
-4.66384e-05
4.25409e-05
-0.000207609
0.000204027
-0.000467973
0.000351552
-0.000795783
0.000451751
-0.00115765
0.000503001
-0.00152261
0.000510022
-0.00186164
0.000476274
-0.00214635
0.000402553
-0.00234885
0.000288994
-0.00244378
0.000138391
-0.00241231
-4.06208e-05
-0.00224676
-0.000231932
-0.0019562
-0.000411261
-0.00156896
-0.000549801
-0.00113202
-0.00061951
-0.000705141
-0.000601224
-0.000349298
-0.000493159
-0.00011101
-0.000317193
-6.14371e-06
-0.000121342
1.69392e-05
-0.000109923
0.000152464
-0.000399632
0.000493736
-0.000822958
0.000774878
-0.00133134
0.00096013
-0.00187864
0.00105031
-0.00242213
0.00105351
-0.00292118
0.000975322
-0.00333613
0.00081751
-0.00362884
0.000581702
-0.00376546
0.00027501
-0.00372133
-8.47512e-05
-0.0034868
-0.000466464
-0.00307321
-0.000824851
-0.00251672
-0.00110629
-0.0018783
-0.00125793
-0.00123757
-0.00124195
-0.000679161
-0.00105157
-0.000272778
-0.000723576
-5.21819e-05
-0.000341938
-3.52426e-05
-0.00017051
0.000322974
-0.000584683
0.000907909
-0.00116181
0.001352
-0.00183474
0.00163306
-0.00254621
0.00176178
-0.00324531
0.00175261
-0.00388419
0.0016142
-0.00441626
0.00134959
-0.00479669
0.000962125
-0.00498523
0.000463552
-0.00495125
-0.000118733
-0.00467981
-0.000737906
-0.00417876
-0.0013259
-0.00348447
-0.00180058
-0.00266463
-0.00207777
-0.00181452
-0.00209206
-0.00104355
-0.00182253
-0.000451592
-0.00131553
-0.000101489
-0.00069204
-0.000136732
-0.00022468
0.000547655
-0.000751903
0.00143513
-0.00146875
0.00206885
-0.00229012
0.00245443
-0.00314919
0.00262085
-0.00398964
0.00259305
-0.0047598
0.00238436
-0.00540942
0.00199921
-0.00588927
0.00144197
-0.00615323
0.000727513
-0.00616282
-0.000109148
-0.00589299
-0.00100774
-0.00534106
-0.00187782
-0.00453542
-0.00260622
-0.00354344
-0.00306976
-0.00247338
-0.00316213
-0.00146375
-0.00283216
-0.000655947
-0.00212334
-0.000155539
-0.00119245
-0.000292271
-0.000270548
0.000818203
-0.000894675
0.00205926
-0.00173228
0.00290646
-0.00268292
0.00340507
-0.00367244
0.00361037
-0.00464173
0.00356234
-0.00553823
0.00328086
-0.00631082
0.00277181
-0.0069078
0.00203895
-0.00727738
0.0010971
-0.00737162
-1.49136e-05
-0.00715006
-0.00122929
-0.00659251
-0.00243538
-0.00570986
-0.00348887
-0.00455984
-0.00421977
-0.00325809
-0.00446388
-0.00197504
-0.00411521
-0.000907034
-0.00319134
-0.000221586
-0.0018779
-0.000513857
-0.000306308
0.00112451
-0.00100694
0.00275989
-0.001941
0.00384052
-0.00299642
0.00446049
-0.00409435
0.00470831
-0.00517547
0.00464346
-0.00618916
0.00429455
-0.00708626
0.0036689
-0.00781493
0.00276762
-0.00831926
0.00160143
-0.00853965
0.000205471
-0.00842016
-0.00134877
-0.00791501
-0.00294053
-0.00700763
-0.00439625
-0.00573305
-0.00549436
-0.00420212
-0.0059948
-0.00261343
-0.0057039
-0.00123041
-0.00457437
-0.000309093
-0.00279921
-0.00082295
-0.000330112
0.00145462
-0.00108272
0.00351249
-0.00208316
0.00484096
-0.00321165
0.00558898
-0.0043873
0.00588396
-0.00555301
0.00580918
-0.00666285
0.00540439
-0.00767273
0.00467878
-0.00853404
0.00362893
-0.00918972
0.00225711
-0.00957266
0.000588419
-0.00960887
-0.00131257
-0.00922546
-0.00332394
-0.00836902
-0.0052527
-0.00703556
-0.00682782
-0.00531031
-0.00772005
-0.00340387
-0.00761034
-0.00165086
-0.00632738
-0.000428637
-0.00402143
-0.00125159
-0.00034071
0.00179533
-0.0011175
0.00428928
-0.00214872
0.00587218
-0.0033103
0.00675056
-0.0045216
0.00709525
-0.00572991
0.00701749
-0.00689665
0.00657112
-0.00798628
0.00576841
-0.00895794
0.00460059
-0.00975895
0.00305812
-0.0103204
0.00114983
-0.010556
-0.00107696
-0.0103675
-0.00351245
-0.00965951
-0.00596065
-0.00837293
-0.0081144
-0.00653875
-0.00955422
-0.00434646
-0.00980264
-0.00218735
-0.00848649
-0.000591642
-0.00561713
-0.00184323
-0.000338588
0.00213392
-0.00111095
0.00506165
-0.00213349
0.00689472
-0.00328031
0.00789738
-0.00447282
0.00828776
-0.00566468
0.00820935
-0.00682717
0.00773361
-0.00793697
0.00687822
-0.00896621
0.00562982
-0.00987391
0.00396582
-0.0105986
0.0018745
-0.011052
-0.000623583
-0.01112
-0.00344445
-0.0106679
-0.00641273
-0.00957091
-0.00921137
-0.00777518
-0.01135
-0.00539905
-0.0121788
-0.00284534
-0.0110402
-0.00080999
-0.00765248
-0.00265322
-0.00032753
0.00246145
-0.00107046
0.00580457
-0.00204454
0.0078688
-0.00312305
0.00897589
-0.00423134
0.00939605
-0.00533157
0.00930958
-0.00640747
0.00880952
-0.00745139
0.00792214
-0.0084536
0.00663203
-0.00939256
0.00490478
-0.0102255
0.00270749
-0.0108742
2.50851e-05
-0.011229
-0.0030897
-0.0111268
-0.00651487
-0.0103801
-0.00995811
-0.00882764
-0.0129024
-0.00645838
-0.014548
-0.00360452
-0.0138941
-0.00109449
-0.0101625
-0.0037477
-0.000316689
0.00277814
-0.00101538
0.00650327
-0.00190596
0.00875938
-0.00286059
0.00993053
-0.00381154
0.010347
-0.00473293
0.010231
-0.00562397
0.00970055
-0.00649565
0.00879382
-0.00736022
0.00749661
-0.00822162
0.00576617
-0.00906452
0.00355039
-0.0098452
0.000805765
-0.0104626
-0.00247225
-0.0107602
-0.0062173
-0.0105067
-0.0102116
-0.00943214
-0.0139769
-0.00734693
-0.0166332
-0.00440207
-0.0168389
-0.00145077
-0.0131138
-0.00519848
-0.000323612
0.00310175
-0.000981848
0.0071615
-0.0017638
0.00954133
-0.00254027
0.010707
-0.00325676
0.0110635
-0.00390566
0.0108799
-0.00450605
0.0103009
-0.00509022
0.00937799
-0.00569436
0.00810074
-0.00635057
0.00642239
-0.00707763
0.00427745
-0.00786834
0.00159647
-0.00866676
-0.00167383
-0.00934444
-0.00553962
-0.00966697
-0.00988911
-0.00928563
-0.0143583
-0.00781578
-0.0181031
-0.00511523
-0.0195395
-0.00187094
-0.0163581
-0.00706941
-0.000379063
0.00348081
-0.00102787
0.00781031
-0.00168804
0.0102015
-0.00223258
0.0112515
-0.00263355
0.0114644
-0.0029128
0.0111591
-0.00311578
0.0105039
-0.00329841
0.00956061
-0.00352038
0.00832272
-0.00384044
0.00674245
-0.00431047
0.00474747
-0.00496554
0.00225154
-0.00580479
-0.000834574
-0.00676027
-0.00458414
-0.0076455
-0.00900388
-0.00809597
-0.0139078
-0.00756714
-0.0186319
-0.00555025
-0.0215564
-0.00231946
-0.0195889
-0.00938887
-0.00053547
0.00401628
-0.00123677
0.0085116
-0.00176439
0.0107291
-0.00201109
0.0114982
-0.00200153
0.0114549
-0.00180486
0.0109625
-0.00150167
0.0102007
-0.00117356
0.00923251
-0.000901437
0.00805059
-0.000765602
0.00660662
-0.000844754
0.00482663
-0.0012118
0.00261859
-0.00192251
-0.000123867
-0.00298791
-0.00351874
-0.0043184
-0.00767339
-0.00561986
-0.0126064
-0.00628363
-0.0179681
-0.00543991
-0.0224001
-0.00271236
-0.0223164
-0.0121012
-0.000874917
0.0048912
-0.00170318
0.00933987
-0.00204808
0.011074
-0.00187753
0.0113277
-0.00131651
0.0108939
-0.000506999
0.010153
0.000425782
0.00926795
0.00137443
0.00828387
0.00224149
0.00718353
0.00293263
0.00591548
0.00335156
0.00440769
0.00339808
0.00257207
0.00296997
0.000304245
0.00197927
-0.00252804
0.000392176
-0.00608629
-0.00165229
-0.0105619
-0.00363164
-0.0159888
-0.00443264
-0.0215991
-0.00288607
-0.023863
-0.0149873
-0.00149966
0.00639086
-0.00242734
0.0102675
-0.0023616
0.0110083
-0.00149693
0.010463
-0.000135921
0.00953285
0.00148227
0.00853476
0.003188
0.00756222
0.00485698
0.00661488
0.00638733
0.00565318
0.00768307
0.00461974
0.00864338
0.00344738
0.00915535
0.00206009
0.00908799
0.000371613
0.00829839
-0.00173845
0.00664012
-0.00442801
0.0040533
-0.00797507
0.000814392
-0.0127499
-0.00202161
-0.0187631
-0.00250888
-0.0233757
-0.0174962
-0.0023429
0.00873376
-0.00282845
0.0107531
-0.00160456
0.00978439
0.000542158
0.0083163
0.00307704
0.00699796
0.00570277
0.00590903
0.00825418
0.00501082
0.0106308
0.00423823
0.0127569
0.00352712
0.0145581
0.00281851
0.0159487
0.00205681
0.016822
0.00118678
0.0170411
0.000152519
0.0164424
-0.00113979
0.014811
-0.00279658
0.0119111
-0.0050752
0.00763137
-0.00847011
0.00259991
-0.0137316
-0.000913838
-0.019862
-0.01841
-0.00200126
0.010735
0.000357891
0.00839395
0.0043143
0.00582798
0.00832098
0.00430962
0.0120692
0.00324979
0.0154619
0.0025163
0.018478
0.0019947
0.0211191
0.00159712
0.0233805
0.00126572
0.0252386
0.000960442
0.0266448
0.000650645
0.0275196
0.000311913
0.0277523
-8.01251e-05
0.0271906
-0.000578095
0.0256114
-0.00121737
0.0226845
-0.00214839
0.0179432
-0.00372877
0.0109446
-0.00673308
0.0030222
-0.0119395
-0.0153878
0.010735
0.019129
0.0249569
0.0292666
0.0325164
0.0350327
0.0370274
0.0386245
0.0398902
0.0408506
0.0415013
0.0418132
0.0417331
0.041155
0.0399376
0.0377892
0.0340604
0.0273274
0.0153878
)
;

boundaryField
{
    movingWall
    {
        type            calculated;
        value           uniform 0;
    }
    fixedWalls
    {
        type            calculated;
        value           uniform 0;
    }
    frontAndBack
    {
        type            empty;
    }
}


// ************************************************************************* //
