/*--------------------------------*- C++ -*----------------------------------*\
  =========                 |
  \\      /  F ield         | OpenFOAM: The Open Source CFD Toolbox
   \\    /   O peration     | Website:  https://openfoam.org
    \\  /    A nd           | Version:  13
     \\/     M anipulation  |
\*---------------------------------------------------------------------------*/
FoamFile
{
    format      ascii;
    class       volVectorField;
    location    "11";
    object      U;
}
// * * * * * * * * * * * * * * * * * * * * * * * * * * * * * * * * * * * * * //

dimensions      [0 1 -1 0 0 0 0];

internalField   nonuniform List<vector> 
400
(
(0.000209331 -0.00020954 0)
(-9.93854e-05 -1.27548e-05 0)
(-0.00150657 0.000201688 0)
(-0.00372962 0.000337917 0)
(-0.0064473 0.0004093 0)
(-0.00936829 0.000436738 0)
(-0.0122467 0.000430689 0)
(-0.0148532 0.00039078 0)
(-0.0169519 0.000310694 0)
(-0.0183005 0.000184968 0)
(-0.0186759 1.58305e-05 0)
(-0.0179236 -0.000184075 0)
(-0.0160163 -0.000383434 0)
(-0.0131041 -0.000541077 0)
(-0.00953708 -0.000613334 0)
(-0.00583566 -0.000568136 0)
(-0.00260089 -0.000398862 0)
(-0.000362451 -0.000135816 0)
(0.000570361 0.000139166 0)
(0.000315522 0.000302457 0)
(8.35113e-07 9.6942e-05 0)
(-0.0019976 0.00185754 0)
(-0.0063413 0.00362633 0)
(-0.0123931 0.00484725 0)
(-0.0194494 0.00549139 0)
(-0.0268653 0.00562832 0)
(-0.0340467 0.005308 0)
(-0.0404233 0.00453825 0)
(-0.0454273 0.00331038 0)
(-0.0485112 0.00164306 0)
(-0.0492112 -0.000374434 0)
(-0.0472377 -0.00255614 0)
(-0.0425853 -0.00461404 0)
(-0.0356225 -0.00619626 0)
(-0.0271175 -0.0069593 0)
(-0.018178 -0.00667063 0)
(-0.0100772 -0.00531407 0)
(-0.00396827 -0.0031671 0)
(-0.00053732 -0.000852626 0)
(0.00023953 0.000598642 0)
(-0.00027471 0.00166777 0)
(-0.00433 0.00636022 0)
(-0.0116714 0.0104813 0)
(-0.0212392 0.0132662 0)
(-0.0320191 0.0146737 0)
(-0.0431355 0.0148202 0)
(-0.0537618 0.0137928 0)
(-0.063097 0.0116151 0)
(-0.0703542 0.00830105 0)
(-0.0747938 0.00394333 0)
(-0.0758041 -0.00120358 0)
(-0.0730134 -0.00667311 0)
(-0.0664146 -0.0117929 0)
(-0.0564736 -0.0157599 0)
(-0.0441743 -0.0177959 0)
(-0.0309678 -0.0173654 0)
(-0.018578 -0.0144115 0)
(-0.00864976 -0.00953062 0)
(-0.00231633 -0.00403003 0)
(8.58472e-05 4.547e-05 0)
(-0.00052423 0.00449385 0)
(-0.00658482 0.0134453 0)
(-0.0168067 0.0205549 0)
(-0.0296366 0.0251712 0)
(-0.0437519 0.0273674 0)
(-0.058106 0.0273495 0)
(-0.0717239 0.0252533 0)
(-0.083664 0.021125 0)
(-0.0930027 0.0150157 0)
(-0.0988689 0.00711605 0)
(-0.100527 -0.00211983 0)
(-0.0974896 -0.0119037 0)
(-0.0896556 -0.021113 0)
(-0.0774463 -0.0284053 0)
(-0.0619007 -0.0324462 0)
(-0.044685 -0.032257 0)
(-0.027934 -0.0276197 0)
(-0.0138659 -0.0194046 0)
(-0.00425998 -0.00965849 0)
(-3.86373e-05 -0.00147119 0)
(-0.000738474 0.00847925 0)
(-0.00861137 0.0229275 0)
(-0.0214589 0.0335775 0)
(-0.0372436 0.0402014 0)
(-0.054356 0.0431542 0)
(-0.0716231 0.0428074 0)
(-0.0879868 0.0393719 0)
(-0.102436 0.0329222 0)
(-0.113969 0.0235417 0)
(-0.121617 0.0115076 0)
(-0.124508 -0.00254319 0)
(-0.121972 -0.0175156 0)
(-0.113693 -0.0318258 0)
(-0.0998856 -0.0435291 0)
(-0.0814789 -0.0505936 0)
(-0.0602409 -0.0513784 0)
(-0.0387245 -0.0452595 0)
(-0.0198856 -0.0332137 0)
(-0.00643508 -0.0180281 0)
(-0.000143021 -0.00399926 0)
(-0.000915513 0.0134734 0)
(-0.0103307 0.0345291 0)
(-0.0254405 0.0492274 0)
(-0.0437872 0.0580267 0)
(-0.0635216 0.0617322 0)
(-0.0833906 0.0609705 0)
(-0.10231 0.056064 0)
(-0.11926 0.0471166 0)
(-0.133214 0.0342194 0)
(-0.143126 0.0176878 0)
(-0.147979 -0.00172739 0)
(-0.146853 -0.0226735 0)
(-0.139088 -0.0431613 0)
(-0.124526 -0.0606009 0)
(-0.103783 -0.0720982 0)
(-0.0785597 -0.0750398 0)
(-0.0517757 -0.067995 0)
(-0.0272869 -0.0517158 0)
(-0.00911036 -0.0296759 0)
(-0.000261833 -0.00769082 0)
(-0.00104999 0.019292 0)
(-0.0116725 0.0478843 0)
(-0.0285789 0.0670749 0)
(-0.0489842 0.0782209 0)
(-0.0708626 0.0827291 0)
(-0.0929296 0.0815726 0)
(-0.11413 0.0752257 0)
(-0.133491 0.0638207 0)
(-0.150017 0.0474174 0)
(-0.162629 0.0262938 0)
(-0.170157 0.00121028 0)
(-0.171414 -0.02636 0)
(-0.165322 -0.0541029 0)
(-0.151164 -0.0788024 0)
(-0.129008 -0.0965593 0)
(-0.100208 -0.103419 0)
(-0.0678489 -0.0965656 0)
(-0.0367388 -0.0759342 0)
(-0.0126389 -0.045457 0)
(-0.000439233 -0.0128741 0)
(-0.00113462 0.0257135 0)
(-0.0125674 0.0625421 0)
(-0.0307039 0.0865776 0)
(-0.0525337 0.10023 0)
(-0.07592 0.105633 0)
(-0.0995928 0.104196 0)
(-0.122576 0.0965886 0)
(-0.144006 0.0829741 0)
(-0.16298 0.0633378 0)
(-0.178454 0.0378314 0)
(-0.189181 0.00709138 0)
(-0.193726 -0.0274708 0)
(-0.190562 -0.0633701 0)
(-0.178316 -0.0968824 0)
(-0.15625 -0.123055 0)
(-0.12498 -0.136246 0)
(-0.0873266 -0.131523 0)
(-0.048838 -0.107038 0)
(-0.0174117 -0.0665503 0)
(-0.000730218 -0.0200817 0)
(-0.00116519 0.0324816 0)
(-0.0129685 0.0779726 0)
(-0.0316828 0.107075 0)
(-0.0541664 0.123339 0)
(-0.0782296 0.129727 0)
(-0.102656 0.128166 0)
(-0.126595 0.119576 0)
(-0.149352 0.104164 0)
(-0.170199 0.0818092 0)
(-0.188223 0.052454 0)
(-0.202222 0.0164678 0)
(-0.210631 -0.0249809 0)
(-0.211563 -0.0694974 0)
(-0.202978 -0.113098 0)
(-0.183137 -0.149909 0)
(-0.151467 -0.17242 0)
(-0.109843 -0.172812 0)
(-0.0639231 -0.146062 0)
(-0.0238348 -0.094382 0)
(-0.00121057 -0.0300695 0)
(-0.00114798 0.0393267 0)
(-0.0128898 0.0935969 0)
(-0.031488 0.127806 0)
(-0.0537406 0.146665 0)
(-0.0774486 0.154047 0)
(-0.101483 0.152479 0)
(-0.125161 0.143196 0)
(-0.148017 0.126483 0)
(-0.169583 0.102111 0)
(-0.189206 0.0697601 0)
(-0.20589 0.0294181 0)
(-0.218145 -0.0181917 0)
(-0.223939 -0.0710507 0)
(-0.220713 -0.125324 0)
(-0.205678 -0.174609 0)
(-0.176697 -0.209665 0)
(-0.133866 -0.219239 0)
(-0.0818013 -0.193431 0)
(-0.0322863 -0.130437 0)
(-0.00199384 -0.0438327 0)
(-0.00111026 0.0460146 0)
(-0.0124596 0.108854 0)
(-0.0302874 0.147957 0)
(-0.051367 0.16918 0)
(-0.0735198 0.177384 0)
(-0.0957446 0.175784 0)
(-0.117573 0.166005 0)
(-0.138825 0.14847 0)
(-0.159373 0.122874 0)
(-0.178951 0.0886356 0)
(-0.196956 0.0453078 0)
(-0.212208 -0.0069741 0)
(-0.222869 -0.0669742 0)
(-0.226192 -0.131393 0)
(-0.218535 -0.193985 0)
(-0.196061 -0.244403 0)
(-0.156329 -0.26796 0)
(-0.101363 -0.248289 0)
(-0.0430102 -0.175891 0)
(-0.00325408 -0.062608 0)
(-0.00111552 0.0524304 0)
(-0.0119876 0.12331 0)
(-0.0285461 0.166754 0)
(-0.0475369 0.189776 0)
(-0.0668312 0.198337 0)
(-0.0856283 0.196437 0)
(-0.103738 0.186171 0)
(-0.121323 0.168168 0)
(-0.138662 0.142113 0)
(-0.15596 0.107212 0)
(-0.173151 0.0625953 0)
(-0.189711 0.0077276 0)
(-0.204258 -0.0570883 0)
(-0.214266 -0.129669 0)
(-0.215843 -0.204759 0)
(-0.20372 -0.272027 0)
(-0.172549 -0.314223 0)
(-0.120167 -0.30775 0)
(-0.0558867 -0.230994 0)
(-0.00524711 -0.0878236 0)
(-0.00128992 0.0587118 0)
(-0.0120552 0.136814 0)
(-0.0271272 0.183574 0)
(-0.0432173 0.207344 0)
(-0.0583069 0.215392 0)
(-0.0719435 0.212608 0)
(-0.0843252 0.201617 0)
(-0.0960227 0.183311 0)
(-0.107761 0.157433 0)
(-0.120259 0.123062 0)
(-0.134069 0.0789888 0)
(-0.149379 0.0240494 0)
(-0.165653 -0.0423784 0)
(-0.18117 -0.119674 0)
(-0.192428 -0.204384 0)
(-0.193545 -0.287692 0)
(-0.176609 -0.351671 0)
(-0.134189 -0.366346 0)
(-0.0700409 -0.294189 0)
(-0.00830703 -0.120931 0)
(-0.001871 0.0654557 0)
(-0.0136429 0.149673 0)
(-0.0273705 0.198031 0)
(-0.0398487 0.220816 0)
(-0.049325 0.226979 0)
(-0.0559784 0.222388 0)
(-0.0605731 0.2102 0)
(-0.0641715 0.191567 0)
(-0.0679567 0.166327 0)
(-0.073134 0.133523 0)
(-0.0808378 0.0917395 0)
(-0.0919928 0.0393627 0)
(-0.107038 -0.0251157 0)
(-0.125454 -0.102583 0)
(-0.144957 -0.19197 0)
(-0.160275 -0.287499 0)
(-0.162175 -0.373311 0)
(-0.13793 -0.416097 0)
(-0.0833129 -0.36114 0)
(-0.0127683 -0.163035 0)
(-0.00331071 0.0740789 0)
(-0.0183073 0.162855 0)
(-0.031057 0.210004 0)
(-0.0390596 0.229128 0)
(-0.0412079 0.231445 0)
(-0.038805 0.223816 0)
(-0.0334388 0.209801 0)
(-0.0267604 0.190708 0)
(-0.0203979 0.166429 0)
(-0.0159613 0.136008 0)
(-0.0150474 0.0979568 0)
(-0.0191975 0.0504345 0)
(-0.0297649 -0.00861636 0)
(-0.047564 -0.0812788 0)
(-0.0721492 -0.168857 0)
(-0.100206 -0.269667 0)
(-0.123299 -0.372958 0)
(-0.124789 -0.447331 0)
(-0.0916904 -0.423905 0)
(-0.0187109 -0.214165 0)
(-0.0063866 0.0872683 0)
(-0.0282445 0.177784 0)
(-0.0398119 0.219094 0)
(-0.041428 0.230647 0)
(-0.0334724 0.226602 0)
(-0.0191574 0.214571 0)
(-0.0012054 0.198156 0)
(0.0180689 0.178552 0)
(0.0366502 0.155574 0)
(0.0526541 0.128242 0)
(0.0641958 0.095087 0)
(0.0693271 0.0542639 0)
(0.0660011 0.0035749 0)
(0.0522494 -0.059651 0)
(0.0265399 -0.138405 0)
(-0.0107192 -0.235128 0)
(-0.054502 -0.346559 0)
(-0.0870942 -0.449842 0)
(-0.0887241 -0.470342 0)
(-0.0253204 -0.271932 0)
(-0.0125383 0.110599 0)
(-0.0454081 0.196485 0)
(-0.0519119 0.224076 0)
(-0.041639 0.222492 0)
(-0.018096 0.209153 0)
(0.012618 0.19157 0)
(0.0465154 0.172618 0)
(0.080764 0.152889 0)
(0.113191 0.131876 0)
(0.141883 0.108502 0)
(0.164915 0.0813636 0)
(0.180202 0.0487871 0)
(0.185306 0.00878792 0)
(0.17754 -0.0412264 0)
(0.153816 -0.104779 0)
(0.111676 -0.187155 0)
(0.0505759 -0.293094 0)
(-0.0147529 -0.414243 0)
(-0.0645466 -0.484849 0)
(-0.0296151 -0.330248 0)
(-0.0216066 0.148481 0)
(-0.0653124 0.213085 0)
(-0.0496598 0.214864 0)
(-0.0135347 0.194747 0)
(0.0351297 0.171203 0)
(0.0877384 0.1492 0)
(0.140085 0.129514 0)
(0.189743 0.111535 0)
(0.235087 0.0942225 0)
(0.2747 0.0763878 0)
(0.307029 0.0567761 0)
(0.330223 0.0340424 0)
(0.341825 0.0066524 0)
(0.339007 -0.0273585 0)
(0.317836 -0.0709739 0)
(0.274116 -0.130072 0)
(0.201751 -0.214869 0)
(0.107637 -0.334888 0)
(-0.0033705 -0.451365 0)
(-0.0232917 -0.378643 0)
(-0.0274536 0.229401 0)
(-0.036461 0.223164 0)
(0.0465314 0.176911 0)
(0.126882 0.138617 0)
(0.205252 0.109325 0)
(0.276942 0.087689 0)
(0.341064 0.0714156 0)
(0.397621 0.0584699 0)
(0.44668 0.0473397 0)
(0.488006 0.0368667 0)
(0.520895 0.0260905 0)
(0.544126 0.0141459 0)
(0.55573 0.000147797 0)
(0.553365 -0.0168961 0)
(0.532983 -0.0389708 0)
(0.490325 -0.0703783 0)
(0.41514 -0.120901 0)
(0.304776 -0.213369 0)
(0.1258 -0.348313 0)
(0.0236473 -0.378777 0)
(0.21446 0.135816 0)
(0.285199 0.0984735 0)
(0.444724 0.0569256 0)
(0.54794 0.0365784 0)
(0.621604 0.0241526 0)
(0.678086 0.0163004 0)
(0.72256 0.0113187 0)
(0.758074 0.00799736 0)
(0.786472 0.00557393 0)
(0.808652 0.00358197 0)
(0.824797 0.0017126 0)
(0.834573 -0.000248563 0)
(0.837103 -0.0024886 0)
(0.831064 -0.0050348 0)
(0.813491 -0.00849121 0)
(0.781932 -0.0135021 0)
(0.724093 -0.0231807 0)
(0.635287 -0.0406087 0)
(0.431311 -0.0913016 0)
(0.270897 -0.153526 0)
)
;

boundaryField
{
    movingWall
    {
        type            fixedValue;
        value           uniform (1 0 0);
    }
    fixedWalls
    {
        type            fixedValue;
        value           uniform (0 0 0);
    }
    frontAndBack
    {
        type            empty;
    }
}


// ************************************************************************* //
