/*--------------------------------*- C++ -*----------------------------------*\
  =========                 |
  \\      /  F ield         | OpenFOAM: The Open Source CFD Toolbox
   \\    /   O peration     | Website:  https://openfoam.org
    \\  /    A nd           | Version:  13
     \\/     M anipulation  |
\*---------------------------------------------------------------------------*/
FoamFile
{
    format      ascii;
    class       volVectorField;
    location    "11";
    object      U_0;
}
// * * * * * * * * * * * * * * * * * * * * * * * * * * * * * * * * * * * * * //

dimensions      [0 1 -1 0 0 0 0];

internalField   nonuniform List<vector> 
400
(
(0.000209335 -0.000209496 0)
(-9.93735e-05 -1.2737e-05 0)
(-0.00150651 0.000201689 0)
(-0.00372945 0.000337907 0)
(-0.00644698 0.000409283 0)
(-0.0093678 0.000436718 0)
(-0.012246 0.000430667 0)
(-0.0148524 0.000390758 0)
(-0.016951 0.000310677 0)
(-0.0182995 0.000184958 0)
(-0.0186749 1.58317e-05 0)
(-0.0179227 -0.000184062 0)
(-0.0160155 -0.000383408 0)
(-0.0131036 -0.000541045 0)
(-0.00953677 -0.000613303 0)
(-0.00583554 -0.000568113 0)
(-0.00260091 -0.000398852 0)
(-0.000362533 -0.000135822 0)
(0.00057029 0.000139145 0)
(0.0003155 0.000302436 0)
(8.36261e-07 9.70074e-05 0)
(-0.00199749 0.00185748 0)
(-0.00634093 0.00362616 0)
(-0.0123924 0.00484698 0)
(-0.0194482 0.00549108 0)
(-0.0268636 0.00562799 0)
(-0.0340446 0.0053077 0)
(-0.0404209 0.004538 0)
(-0.0454247 0.00331021 0)
(-0.0485085 0.00164302 0)
(-0.0492085 -0.00037434 0)
(-0.0472352 -0.00255591 0)
(-0.0425832 -0.00461371 0)
(-0.035621 -0.00619586 0)
(-0.0271164 -0.00695891 0)
(-0.0181774 -0.00667031 0)
(-0.010077 -0.00531387 0)
(-0.00396828 -0.00316704 0)
(-0.000537387 -0.000852681 0)
(0.000239506 0.000598567 0)
(-0.000274692 0.00166774 0)
(-0.00432972 0.0063599 0)
(-0.0116706 0.0104807 0)
(-0.0212378 0.0132654 0)
(-0.032017 0.0146728 0)
(-0.0431327 0.0148193 0)
(-0.0537584 0.013792 0)
(-0.0630931 0.0116145 0)
(-0.07035 0.00830068 0)
(-0.0747894 0.00394327 0)
(-0.0757999 -0.00120329 0)
(-0.0730095 -0.00667249 0)
(-0.0664113 -0.011792 0)
(-0.056471 -0.0157589 0)
(-0.0441724 -0.0177948 0)
(-0.0309666 -0.0173646 0)
(-0.0185774 -0.0144109 0)
(-0.00864957 -0.00953035 0)
(-0.00231632 -0.00403003 0)
(8.58299e-05 4.53657e-05 0)
(-0.000524192 0.00449362 0)
(-0.00658435 0.0134445 0)
(-0.0168055 0.0205536 0)
(-0.0296345 0.0251696 0)
(-0.043749 0.0273657 0)
(-0.0581022 0.0273478 0)
(-0.0717193 0.0252518 0)
(-0.0836588 0.021124 0)
(-0.0929971 0.0150151 0)
(-0.0988632 0.00711602 0)
(-0.100521 -0.00211926 0)
(-0.0974845 -0.0119026 0)
(-0.0896511 -0.0211115 0)
(-0.0774427 -0.0284035 0)
(-0.061898 -0.0324444 0)
(-0.0446832 -0.0322554 0)
(-0.027933 -0.0276185 0)
(-0.0138655 -0.019404 0)
(-0.00425988 -0.00965834 0)
(-3.86468e-05 -0.00147128 0)
(-0.000738416 0.00847872 0)
(-0.00861074 0.022926 0)
(-0.0214574 0.0335753 0)
(-0.0372411 0.0401988 0)
(-0.0543524 0.0431515 0)
(-0.0716185 0.0428048 0)
(-0.0879813 0.0393697 0)
(-0.102429 0.0329206 0)
(-0.113962 0.0235408 0)
(-0.12161 0.0115076 0)
(-0.124501 -0.0025423 0)
(-0.121966 -0.0175139 0)
(-0.113688 -0.0318234 0)
(-0.0998812 -0.0435263 0)
(-0.0814755 -0.0505908 0)
(-0.0602385 -0.0513758 0)
(-0.038723 -0.0452575 0)
(-0.0198848 -0.0332125 0)
(-0.00643488 -0.0180277 0)
(-0.000143023 -0.00399928 0)
(-0.000915444 0.0134725 0)
(-0.01033 0.0345268 0)
(-0.0254388 0.0492242 0)
(-0.0437843 0.058023 0)
(-0.0635175 0.0617284 0)
(-0.0833855 0.060967 0)
(-0.102304 0.0560611 0)
(-0.119254 0.0471145 0)
(-0.133207 0.0342183 0)
(-0.143119 0.0176878 0)
(-0.147972 -0.00172622 0)
(-0.146846 -0.0226713 0)
(-0.139082 -0.0431581 0)
(-0.124521 -0.0605972 0)
(-0.103779 -0.0720943 0)
(-0.0785567 -0.0750362 0)
(-0.0517737 -0.0679921 0)
(-0.0272859 -0.0517138 0)
(-0.00911005 -0.0296751 0)
(-0.000261827 -0.00769072 0)
(-0.00104992 0.0192907 0)
(-0.0116717 0.0478811 0)
(-0.0285771 0.0670706 0)
(-0.0489813 0.0782161 0)
(-0.0708585 0.0827242 0)
(-0.0929245 0.0815681 0)
(-0.114124 0.075222 0)
(-0.133485 0.0638181 0)
(-0.15001 0.0474161 0)
(-0.162622 0.0262938 0)
(-0.17015 0.00121172 0)
(-0.171407 -0.0263573 0)
(-0.165316 -0.054099 0)
(-0.151159 -0.0787978 0)
(-0.129004 -0.0965544 0)
(-0.100204 -0.103415 0)
(-0.0678467 -0.0965617 0)
(-0.0367376 -0.0759314 0)
(-0.0126384 -0.0454556 0)
(-0.000439216 -0.0128738 0)
(-0.00113456 0.0257118 0)
(-0.0125667 0.062538 0)
(-0.0307023 0.0865722 0)
(-0.052531 0.100224 0)
(-0.0759163 0.105627 0)
(-0.0995881 0.10419 0)
(-0.12257 0.0965842 0)
(-0.144 0.0829709 0)
(-0.162974 0.0633362 0)
(-0.178448 0.0378315 0)
(-0.189175 0.00709303 0)
(-0.19372 -0.0274677 0)
(-0.190556 -0.0633657 0)
(-0.178311 -0.096877 0)
(-0.156246 -0.123049 0)
(-0.124977 -0.136241 0)
(-0.0873241 -0.131518 0)
(-0.0488365 -0.107034 0)
(-0.0174112 -0.0665482 0)
(-0.000730188 -0.0200812 0)
(-0.00116514 0.0324796 0)
(-0.0129679 0.0779678 0)
(-0.0316815 0.107069 0)
(-0.0541643 0.123332 0)
(-0.0782267 0.12972 0)
(-0.102652 0.12816 0)
(-0.12659 0.119571 0)
(-0.149347 0.10416 0)
(-0.170194 0.0818074 0)
(-0.188219 0.052454 0)
(-0.202217 0.0164696 0)
(-0.210626 -0.0249776 0)
(-0.211558 -0.0694926 0)
(-0.202974 -0.113092 0)
(-0.183133 -0.149903 0)
(-0.151464 -0.172413 0)
(-0.109841 -0.172805 0)
(-0.0639216 -0.146057 0)
(-0.0238341 -0.0943792 0)
(-0.00121052 -0.0300687 0)
(-0.00114796 0.0393245 0)
(-0.0128895 0.0935916 0)
(-0.0314872 0.127799 0)
(-0.0537393 0.146657 0)
(-0.0774467 0.154039 0)
(-0.10148 0.152472 0)
(-0.125158 0.14319 0)
(-0.148015 0.126479 0)
(-0.16958 0.102109 0)
(-0.189203 0.0697601 0)
(-0.205887 0.02942 0)
(-0.218142 -0.0181882 0)
(-0.223936 -0.0710458 0)
(-0.22071 -0.125318 0)
(-0.205676 -0.174602 0)
(-0.176695 -0.209658 0)
(-0.133863 -0.219232 0)
(-0.0817999 -0.193425 0)
(-0.0322857 -0.130433 0)
(-0.00199378 -0.0438315 0)
(-0.00111027 0.0460123 0)
(-0.0124595 0.108848 0)
(-0.0302872 0.14795 0)
(-0.0513666 0.169172 0)
(-0.0735192 0.177376 0)
(-0.0957439 0.175777 0)
(-0.117572 0.166 0)
(-0.138824 0.148466 0)
(-0.159373 0.122872 0)
(-0.17895 0.0886357 0)
(-0.196956 0.0453097 0)
(-0.212208 -0.00697073 0)
(-0.222869 -0.0669694 0)
(-0.226192 -0.131387 0)
(-0.218534 -0.193978 0)
(-0.19606 -0.244396 0)
(-0.156328 -0.267953 0)
(-0.101362 -0.248283 0)
(-0.0430096 -0.175887 0)
(-0.00325399 -0.0626065 0)
(-0.00111556 0.0524281 0)
(-0.0119879 0.123304 0)
(-0.0285466 0.166747 0)
(-0.0475377 0.189768 0)
(-0.0668322 0.198329 0)
(-0.0856294 0.19643 0)
(-0.10374 0.186166 0)
(-0.121325 0.168165 0)
(-0.138664 0.142112 0)
(-0.155962 0.107213 0)
(-0.173154 0.0625973 0)
(-0.189714 0.00773092 0)
(-0.204261 -0.0570838 0)
(-0.214268 -0.129664 0)
(-0.215844 -0.204753 0)
(-0.203721 -0.272021 0)
(-0.172549 -0.314217 0)
(-0.120167 -0.307744 0)
(-0.0558862 -0.230989 0)
(-0.00524701 -0.0878218 0)
(-0.00128999 0.0587097 0)
(-0.0120558 0.136809 0)
(-0.0271284 0.183568 0)
(-0.0432192 0.207336 0)
(-0.0583093 0.215384 0)
(-0.0719465 0.212601 0)
(-0.0843287 0.201612 0)
(-0.0960266 0.183308 0)
(-0.107765 0.157431 0)
(-0.120264 0.123063 0)
(-0.134074 0.0789909 0)
(-0.149384 0.0240528 0)
(-0.165657 -0.0423742 0)
(-0.181174 -0.119669 0)
(-0.192431 -0.204379 0)
(-0.193547 -0.287687 0)
(-0.17661 -0.351665 0)
(-0.134189 -0.36634 0)
(-0.0700407 -0.294184 0)
(-0.00830694 -0.120929 0)
(-0.0018711 0.0654541 0)
(-0.0136438 0.149669 0)
(-0.0273723 0.198025 0)
(-0.0398515 0.220809 0)
(-0.0493288 0.226972 0)
(-0.055983 0.222383 0)
(-0.0605784 0.210196 0)
(-0.0641774 0.191564 0)
(-0.0679629 0.166326 0)
(-0.0731404 0.133523 0)
(-0.0808443 0.0917417 0)
(-0.0919992 0.0393659 0)
(-0.107044 -0.0251119 0)
(-0.125459 -0.102579 0)
(-0.144962 -0.191966 0)
(-0.160278 -0.287495 0)
(-0.162177 -0.373307 0)
(-0.137931 -0.416092 0)
(-0.0833131 -0.361135 0)
(-0.0127683 -0.163033 0)
(-0.00331082 0.0740777 0)
(-0.0183083 0.162852 0)
(-0.0310593 0.209999 0)
(-0.0390631 0.229122 0)
(-0.0412126 0.231439 0)
(-0.0388108 0.223811 0)
(-0.0334454 0.209798 0)
(-0.0267676 0.190706 0)
(-0.0204054 0.166429 0)
(-0.0159689 0.136009 0)
(-0.0150548 0.0979589 0)
(-0.0192046 0.0504374 0)
(-0.0297716 -0.008613 0)
(-0.0475701 -0.0812753 0)
(-0.0721546 -0.168853 0)
(-0.10021 -0.269664 0)
(-0.123302 -0.372954 0)
(-0.124791 -0.447327 0)
(-0.091691 -0.423901 0)
(-0.0187109 -0.214163 0)
(-0.00638671 0.0872678 0)
(-0.0282455 0.177782 0)
(-0.0398143 0.21909 0)
(-0.0414319 0.230643 0)
(-0.0334777 0.226597 0)
(-0.0191638 0.214567 0)
(-0.00121262 0.198153 0)
(0.0180612 0.178551 0)
(0.0366422 0.155573 0)
(0.0526462 0.128243 0)
(0.0641883 0.0950888 0)
(0.0693201 0.0542664 0)
(0.0659946 0.00357771 0)
(0.0522436 -0.0596482 0)
(0.0265348 -0.138403 0)
(-0.0107236 -0.235125 0)
(-0.0545054 -0.346557 0)
(-0.0870964 -0.44984 0)
(-0.088725 -0.470339 0)
(-0.0253204 -0.271931 0)
(-0.0125383 0.110599 0)
(-0.045409 0.196484 0)
(-0.051914 0.224073 0)
(-0.0416425 0.222489 0)
(-0.0181009 0.20915 0)
(0.012612 0.191567 0)
(0.0465085 0.172615 0)
(0.0807566 0.152888 0)
(0.113184 0.131875 0)
(0.141875 0.108503 0)
(0.164908 0.0813649 0)
(0.180196 0.0487889 0)
(0.185301 0.00879005 0)
(0.177535 -0.0412243 0)
(0.153812 -0.104777 0)
(0.111672 -0.187153 0)
(0.050573 -0.293093 0)
(-0.0147549 -0.414242 0)
(-0.0645476 -0.484848 0)
(-0.0296152 -0.330247 0)
(-0.0216066 0.148481 0)
(-0.0653127 0.213085 0)
(-0.049661 0.214863 0)
(-0.013537 0.194745 0)
(0.0351262 0.171201 0)
(0.0877339 0.149198 0)
(0.14008 0.129512 0)
(0.189737 0.111534 0)
(0.235081 0.0942221 0)
(0.274694 0.0763881 0)
(0.307023 0.0567768 0)
(0.330217 0.0340436 0)
(0.341821 0.00665379 0)
(0.339003 -0.0273571 0)
(0.317833 -0.0709727 0)
(0.274113 -0.130071 0)
(0.201749 -0.214869 0)
(0.107636 -0.334887 0)
(-0.00337126 -0.451364 0)
(-0.0232918 -0.378643 0)
(-0.0274535 0.229401 0)
(-0.0364608 0.223164 0)
(0.0465313 0.176911 0)
(0.126881 0.138617 0)
(0.205251 0.109324 0)
(0.276939 0.0876882 0)
(0.34106 0.0714148 0)
(0.397617 0.0584694 0)
(0.446676 0.0473395 0)
(0.488002 0.0368668 0)
(0.520891 0.0260909 0)
(0.544122 0.0141465 0)
(0.555727 0.000148446 0)
(0.553362 -0.0168954 0)
(0.532982 -0.0389703 0)
(0.490324 -0.0703779 0)
(0.41514 -0.1209 0)
(0.304776 -0.213369 0)
(0.1258 -0.348313 0)
(0.0236472 -0.378777 0)
(0.21446 0.135817 0)
(0.2852 0.0984736 0)
(0.444725 0.0569256 0)
(0.54794 0.0365784 0)
(0.621604 0.0241525 0)
(0.678086 0.0163004 0)
(0.722559 0.0113186 0)
(0.758072 0.00799732 0)
(0.78647 0.00557394 0)
(0.80865 0.00358202 0)
(0.824796 0.00171269 0)
(0.834572 -0.000248458 0)
(0.837102 -0.00248852 0)
(0.831063 -0.00503473 0)
(0.813491 -0.00849116 0)
(0.781932 -0.0135021 0)
(0.724093 -0.0231808 0)
(0.635287 -0.0406087 0)
(0.431311 -0.0913016 0)
(0.270897 -0.153526 0)
)
;

boundaryField
{
    movingWall
    {
        type            calculated;
        value           uniform (1 0 0);
    }
    fixedWalls
    {
        type            calculated;
        value           uniform (0 0 0);
    }
    frontAndBack
    {
        type            empty;
    }
}


// ************************************************************************* //
