/*--------------------------------*- C++ -*----------------------------------*\
  =========                 |
  \\      /  F ield         | OpenFOAM: The Open Source CFD Toolbox
   \\    /   O peration     | Website:  https://openfoam.org
    \\  /    A nd           | Version:  13
     \\/     M anipulation  |
\*---------------------------------------------------------------------------*/
FoamFile
{
    format      ascii;
    class       volScalarField;
    location    "22";
    object      p;
}
// * * * * * * * * * * * * * * * * * * * * * * * * * * * * * * * * * * * * * //

dimensions      [0 2 -2 0 0 0 0];

internalField   nonuniform List<scalar> 
400
(
1.16622e-06
-0.000571173
-0.00121468
-0.00171743
-0.00195767
-0.00188308
-0.00146883
-0.000703837
0.000403016
0.00180767
0.00341636
0.00507664
0.00659264
0.0077527
0.00838145
0.00839737
0.00785719
0.00697086
0.00605003
0.00549638
0.000571092
-1.91045e-05
-0.000568437
-0.000955713
-0.00113058
-0.00106044
-0.000724379
-0.000107598
0.000790456
0.00194116
0.0032715
0.00466182
0.00594238
0.0069315
0.00747597
0.0075036
0.00706113
0.00632085
0.00554533
0.00497473
0.00124675
0.000494131
-8.55155e-05
-0.000440107
-0.0006048
-0.000574827
-0.000335711
0.000134237
0.000851401
0.00180864
0.00295662
0.00419357
0.00536621
0.00629561
0.00682108
0.00685479
0.00642273
0.00567025
0.00481108
0.00403936
0.00174154
0.000764777
7.48399e-05
-0.000320699
-0.000535794
-0.000591286
-0.000476647
-0.00015845
0.000401834
0.00122396
0.00228359
0.00349478
0.00470363
0.00571165
0.00632135
0.00640015
0.00593558
0.00505273
0.00395065
0.00284674
0.00179639
0.00059677
-0.00022653
-0.000703555
-0.00101676
-0.00120571
-0.00125767
-0.00112114
-0.000728492
-2.57201e-05
0.000993912
0.00226577
0.00363221
0.00486337
0.0057008
0.00593447
0.00548261
0.00443778
0.00300232
0.00146456
0.00119567
-0.000201939
-0.00116207
-0.00175135
-0.0022099
-0.00258896
-0.00286734
-0.00296906
-0.00278959
-0.00223045
-0.00124153
0.000153074
0.00179536
0.00342228
0.0046926
0.00527709
0.00497428
0.00380813
0.00198156
-0.000101397
-0.000240509
-0.00179886
-0.00289089
-0.00362069
-0.00427597
-0.00491465
-0.0055028
-0.00593499
-0.00606176
-0.00572546
-0.00480383
-0.00328209
-0.00126733
0.000949576
0.00292903
0.0041725
0.00428186
0.00313818
0.000905336
-0.0018534
-0.0026506
-0.00432488
-0.00553965
-0.00643749
-0.00734506
-0.00832536
-0.00933116
-0.0102257
-0.0108079
-0.0108468
-0.0101298
-0.00853524
-0.00610341
-0.00310879
-8.31928e-05
0.00225806
0.00321554
0.00239813
-0.000174451
-0.0037499
-0.00611969
-0.00785992
-0.00918281
-0.0102697
-0.0114806
-0.0128865
-0.0144312
-0.0159492
-0.0171855
-0.0178233
-0.0175308
-0.0160382
-0.0132487
-0.00935336
-0.00493221
-0.000937922
0.00151131
0.00155767
-0.00113405
-0.00564356
-0.0106694
-0.0124215
-0.0138252
-0.0150995
-0.0166393
-0.0185325
-0.0207233
-0.0230262
-0.0251357
-0.0266441
-0.0270789
-0.0259723
-0.0230291
-0.0182493
-0.0121633
-0.00591815
-0.00113869
0.000606364
-0.00172812
-0.00719177
-0.016258
-0.0179628
-0.0193931
-0.0208033
-0.0226382
-0.0250196
-0.0279071
-0.0311067
-0.0342722
-0.0369082
-0.0383895
-0.0380006
-0.0352784
-0.0298282
-0.0220002
-0.013002
-0.00495588
-0.000372009
-0.00151264
-0.00771725
-0.0228
-0.0243871
-0.0257397
-0.0271452
-0.0291399
-0.0319066
-0.0354378
-0.0395442
-0.0438493
-0.0477787
-0.0505739
-0.0513713
-0.0491576
-0.0433884
-0.0339838
-0.0219731
-0.00980183
-0.0010211
0.000283446
-0.00599665
-0.0302193
-0.0315831
-0.0326664
-0.0337886
-0.0356644
-0.0385757
-0.0425642
-0.0474498
-0.0528286
-0.0580567
-0.0622449
-0.0643046
-0.0630166
-0.0573267
-0.046688
-0.0317005
-0.0147971
-0.000413518
0.00496886
2.59113e-05
-0.0385565
-0.0394861
-0.0399579
-0.0403235
-0.0416313
-0.0443055
-0.0484409
-0.0538542
-0.0601004
-0.0664596
-0.0719236
-0.0752159
-0.0748652
-0.0694167
-0.0578028
-0.0399983
-0.0180198
0.0032827
0.0147015
0.0135584
-0.0481712
-0.0481536
-0.0474002
-0.0462809
-0.0464086
-0.0483674
-0.0522772
-0.0579083
-0.0647342
-0.07193
-0.0783553
-0.0825563
-0.0828277
-0.0773699
-0.0646419
-0.0439341
-0.0165408
0.0130213
0.0329334
0.0392828
-0.0602315
-0.0579545
-0.0548642
-0.0512106
-0.0494242
-0.0501751
-0.0535165
-0.0590894
-0.0662153
-0.0739138
-0.0808747
-0.085449
-0.0857031
-0.0795168
-0.0649395
-0.0406093
-0.00697721
0.0328184
0.0647953
0.0836782
-0.0774783
-0.0694703
-0.0620849
-0.0545471
-0.0501366
-0.0493223
-0.0519012
-0.0572572
-0.064482
-0.0723805
-0.0794356
-0.0837744
-0.0832152
-0.0752805
-0.0576197
-0.0282102
0.0133532
0.0666618
0.115753
0.154808
-0.108923
-0.0850377
-0.0697714
-0.0563899
-0.0485393
-0.045879
-0.0476215
-0.0527117
-0.0599134
-0.067773
-0.0745484
-0.0781365
-0.0761015
-0.0655404
-0.0436419
-0.0074444
0.0447434
0.114933
0.188079
0.263281
-0.168691
-0.100744
-0.0730916
-0.0522869
-0.0413089
-0.037698
-0.0394397
-0.0448625
-0.0524123
-0.0604432
-0.0670702
-0.0700445
-0.0666848
-0.0537864
-0.0278886
0.0154105
0.0800718
0.17276
0.285855
0.445985
-0.402752
-0.139029
-0.0734578
-0.0447291
-0.0305707
-0.0266161
-0.0290835
-0.0353708
-0.0436508
-0.0522038
-0.0591204
-0.0621422
-0.0586147
-0.0452119
-0.0174495
0.0310794
0.108496
0.236657
0.427487
0.79368
)
;

boundaryField
{
    movingWall
    {
        type            zeroGradient;
    }
    fixedWalls
    {
        type            zeroGradient;
    }
    frontAndBack
    {
        type            empty;
    }
}


// ************************************************************************* //
