/*--------------------------------*- C++ -*----------------------------------*\
  =========                 |
  \\      /  F ield         | OpenFOAM: The Open Source CFD Toolbox
   \\    /   O peration     | Website:  https://openfoam.org
    \\  /    A nd           | Version:  13
     \\/     M anipulation  |
\*---------------------------------------------------------------------------*/
FoamFile
{
    format      ascii;
    class       surfaceScalarField;
    location    "22";
    object      phi;
}
// * * * * * * * * * * * * * * * * * * * * * * * * * * * * * * * * * * * * * //

dimensions      [0 3 -1 0 0 0 0];

internalField   nonuniform List<scalar> 
760
(
4.38881e-06
-4.4017e-06
-3.89759e-05
4.33647e-05
-0.000131152
9.21763e-05
-0.000256574
0.000125422
-0.000399466
0.000142892
-0.000546371
0.000146905
-0.000685352
0.00013898
-0.000804642
0.00011929
-0.000892084
8.74419e-05
-0.00093583
4.37467e-05
-0.000926178
-9.65186e-06
-0.000858512
-6.76667e-05
-0.000735889
-0.000122623
-0.000571058
-0.00016483
-0.000386238
-0.00018482
-0.000210069
-0.000176169
-7.16567e-05
-0.000138412
7.52474e-06
-7.91815e-05
2.35937e-05
-1.6069e-05
2.35936e-05
-4.7076e-05
4.26743e-05
-0.000209989
0.000206278
-0.000473758
0.000355945
-0.000805964
0.000457628
-0.0011727
0.000509625
-0.0015425
0.000516703
-0.00188587
0.000482351
-0.00217394
0.000407366
-0.00237842
0.000291916
-0.00247359
0.000138921
-0.0024405
-4.274e-05
-0.00227158
-0.000236588
-0.00197626
-0.000417939
-0.0015835
-0.000557599
-0.00114105
-0.000627264
-0.000709485
-0.000607736
-0.000350405
-0.000497492
-0.000110606
-0.000318981
-5.67167e-06
-0.000121003
1.79219e-05
-0.000111444
0.000154118
-0.000405291
0.000500125
-0.000834686
0.000785341
-0.00135027
0.000973211
-0.00190515
0.00106451
-0.00245586
0.00106742
-0.00296112
0.000987611
-0.00338066
0.000826904
-0.00367581
0.000587061
-0.00381238
0.000275498
-0.00376565
-8.94769e-05
-0.00352616
-0.000476069
-0.00310579
-0.000838316
-0.00254144
-0.00112194
-0.00189505
-0.00127365
-0.00124723
-0.00125556
-0.00068345
-0.00106127
-0.000273868
-0.000728562
-5.2108e-05
-0.000342763
-3.41861e-05
-0.000173161
0.000327279
-0.000593661
0.000920625
-0.00117937
0.00137105
-0.00186197
0.00165581
-0.00258321
0.00178574
-0.00329131
0.00177552
-0.00393768
0.00163398
-0.00447507
0.0013643
-0.00485814
0.000970131
-0.00504639
0.000463747
-0.00500916
-0.000126709
-0.0047318
-0.000753425
-0.0042227
-0.00134742
-0.00351899
-0.00182566
-0.00268931
-0.00210333
-0.00183003
-0.00211484
-0.00105158
-0.00183972
-0.000454561
-0.00132558
-0.000101957
-0.000695368
-0.000136143
-0.000228283
0.000555562
-0.000763637
0.00145598
-0.00149107
0.00209848
-0.00232395
0.00248869
-0.00319431
0.0026561
-0.0040449
0.00262611
-0.00482327
0.00241235
-0.00547859
0.00201961
-0.00596121
0.00145275
-0.00622483
0.000727372
-0.006231
-0.000120545
-0.00595499
-0.00102943
-0.00539456
-0.00190785
-0.00457871
-0.0026415
-0.00357568
-0.00310637
-0.00249478
-0.00319573
-0.00147572
-0.00285878
-0.000660939
-0.00214037
-0.000156591
-0.00119972
-0.000292734
-0.000274766
0.000830328
-0.000908148
0.00208936
-0.00175751
0.00294785
-0.00272066
0.00345184
-0.00372218
0.00365762
-0.00470201
0.00360594
-0.00560691
0.00331725
-0.00638525
0.00279796
-0.00698506
0.00205255
-0.00735453
0.00109684
-0.00744555
-2.95249e-05
-0.00721831
-0.00125667
-0.00665267
-0.00247349
-0.00575996
-0.00353421
-0.00459853
-0.00426779
-0.00328493
-0.00450934
-0.00199087
-0.00415285
-0.000914093
-0.00321714
-0.000223249
-0.00189056
-0.000515983
-0.000310686
0.00114101
-0.00102081
0.00279948
-0.00196679
0.00389383
-0.00303469
0.00451975
-0.0041444
0.00476733
-0.00523568
0.00469722
-0.00625731
0.00433888
-0.00715978
0.00370043
-0.00789114
0.00278392
-0.00839551
0.00160121
-0.00861368
0.000188642
-0.00848945
-0.00138089
-0.00797744
-0.0029855
-0.00706119
-0.00445046
-0.00577596
-0.00555302
-0.00423321
-0.00605208
-0.00263267
-0.00575339
-0.00123947
-0.00461034
-0.000311391
-0.00281864
-0.000827373
-0.00033413
0.00147514
-0.00109546
0.00356082
-0.00210684
0.00490521
-0.0032467
0.0056596
-0.0044329
0.00595353
-0.00560753
0.00587185
-0.00672417
0.00545551
-0.00773854
0.0047148
-0.00860209
0.00364746
-0.00925794
0.00225706
-0.00963928
0.000569986
-0.00967221
-0.00134796
-0.00928394
-0.00337377
-0.00842091
-0.0053135
-0.00707894
-0.00689499
-0.00534336
-0.00778766
-0.00342548
-0.00767127
-0.00166163
-0.00637419
-0.000431562
-0.00404871
-0.00125894
-0.000343846
0.00181899
-0.00112761
0.00434458
-0.00216765
0.00594525
-0.00333839
0.00683034
-0.00455803
0.00717318
-0.00577317
0.00708698
-0.00694483
0.00662718
-0.00803745
0.00580742
-0.00901038
0.00462039
-0.00981128
0.00305797
-0.0103716
0.00113032
-0.0106054
-0.00111417
-0.0104144
-0.00356475
-0.00970302
-0.0060249
-0.00841143
-0.00818657
-0.00657009
-0.009629
-0.00436848
-0.00987289
-0.00219916
-0.0085435
-0.00059511
-0.00565276
-0.00185405
-0.000340387
0.00215938
-0.00111707
0.00512127
-0.00214532
0.00697349
-0.0032981
0.00798313
-0.0044959
0.00837098
-0.00569175
0.00828284
-0.00685668
0.0077921
-0.00796743
0.00691818
-0.00899647
0.00564943
-0.00990335
0.00396485
-0.0106271
0.00185408
-0.0110798
-0.000661499
-0.0111477
-0.00349687
-0.0106957
-0.0064769
-0.00959813
-0.00928413
-0.00779995
-0.0114272
-0.00541853
-0.0122543
-0.00285698
-0.0111051
-0.00081378
-0.00769596
-0.00266783
-0.000327668
0.00248704
-0.0010716
0.0058652
-0.0020475
0.00794939
-0.00312806
0.00906369
-0.00423796
0.00948088
-0.00533889
0.00938377
-0.0064144
0.00886761
-0.007457
0.00796077
-0.00845737
0.00664979
-0.00939457
0.00490205
-0.0102266
0.00268615
-0.0108748
-1.3284e-05
-0.0112316
-0.00314012
-0.0111328
-0.0065757
-0.01039
-0.0100269
-0.00884059
-0.0129766
-0.00647161
-0.0146233
-0.00361417
-0.0139625
-0.00109818
-0.0102119
-0.00376601
-0.000315017
0.00280206
-0.00101105
0.00656123
-0.0018991
0.00883743
-0.00285146
0.010016
-0.00380007
0.0104295
-0.00471877
0.0103025
-0.00560667
0.00975551
-0.00647495
0.00882905
-0.00733623
0.00751108
-0.00819498
0.0057608
-0.00903642
0.00352759
-0.00981836
0.00076866
-0.0104387
-0.00251983
-0.0107417
-0.00627265
-0.0104957
-0.0102729
-0.00942921
-0.0140431
-0.00735028
-0.0167022
-0.00440752
-0.0169053
-0.00145375
-0.0131657
-0.00521976
-0.000320173
0.00312223
-0.000972083
0.00721314
-0.00174713
0.00961248
-0.00251698
0.0107859
-0.00322728
0.0111398
-0.00387041
0.0109456
-0.00446547
0.0103506
-0.00504491
0.00940849
-0.00564519
0.00811136
-0.00629879
0.0064144
-0.0070249
0.00425369
-0.00781692
0.00156068
-0.00861914
-0.00171761
-0.00930351
-0.00558828
-0.00963555
-0.0099409
-0.00926566
-0.014413
-0.00780707
-0.0181608
-0.00511449
-0.0195978
-0.00187243
-0.0164078
-0.0070922
-0.000374102
0.00349634
-0.00101332
0.00785237
-0.0016626
0.0102618
-0.00219655
0.0113198
-0.00258794
0.0115312
-0.00285895
0.0112166
-0.0030552
0.0105468
-0.00323274
0.00958603
-0.00345138
0.00833
-0.0037699
0.00673293
-0.00424025
0.00472404
-0.00489764
0.00221807
-0.00574137
-0.000873876
-0.00670383
-0.00462582
-0.00759886
-0.00904587
-0.00806181
-0.01395
-0.00754688
-0.0186757
-0.00554242
-0.0216023
-0.00231876
-0.0196314
-0.00941095
-0.000529485
0.00402582
-0.00121883
0.00854171
-0.00173248
0.0107754
-0.00196545
0.0115528
-0.00194368
0.0115094
-0.00173706
0.01101
-0.00142654
0.0102363
-0.00109383
0.00925332
-0.000819716
0.00805589
-0.00068425
0.00659746
-0.000765748
0.00480554
-0.00113678
0.0025891
-0.00185294
-0.000157718
-0.00292536
-0.00355341
-0.00426488
-0.00770635
-0.00557785
-0.012637
-0.00625542
-0.0179982
-0.00542596
-0.0224317
-0.00270919
-0.0223482
-0.0121201
-0.000868773
0.00489459
-0.00168427
0.00935721
-0.00201372
0.0111049
-0.0018277
0.0113668
-0.00125295
0.0109347
-0.000432574
0.0101896
0.000507693
0.00929603
0.00146028
0.00830073
0.00232796
0.0071882
0.00301689
0.00590853
0.00343144
0.00439099
0.00347207
0.00254847
0.00303718
0.000277177
0.0020391
-0.00255533
0.000443822
-0.00611107
-0.00161023
-0.010583
-0.00360113
-0.0160073
-0.00441545
-0.0216174
-0.00288087
-0.0238828
-0.015001
-0.00149477
0.00638936
-0.00241133
0.0102738
-0.00233115
0.0110247
-0.00145134
0.010487
-7.65277e-05
0.00955985
0.00155282
0.00856027
0.00326619
0.00758266
0.00493905
0.00662787
0.00646964
0.00565762
0.00776243
0.00461574
0.0087173
0.00343612
0.00922219
0.00204358
0.00914689
0.000352469
0.00834931
-0.00175774
0.00668322
-0.00444498
0.00408849
-0.00798825
0.00084059
-0.0127594
-0.00200526
-0.0187716
-0.00250295
-0.0233851
-0.017504
-0.00234102
0.00873038
-0.00281995
0.0107527
-0.00158551
0.00979025
0.000573666
0.00832781
0.00312102
0.0070125
0.00575759
0.00592369
0.00831711
0.00502314
0.0106985
0.00424647
0.0128257
0.00353039
0.0146248
0.0028167
0.0160103
0.00205056
0.0168767
0.00117727
0.0170876
0.000141574
0.0164807
-0.00115089
0.0148417
-0.00280597
0.0119353
-0.00508182
0.00764968
-0.00847379
0.00261193
-0.0137338
-0.00090856
-0.0198646
-0.0184125
-0.00200262
0.010733
0.000357662
0.00839241
0.00431896
0.00582895
0.00833379
0.00431298
0.0120916
0.00325465
0.0154939
0.00252146
0.0185179
0.00199913
0.0211643
0.00160006
0.0234279
0.0012668
0.025285
0.00095962
0.0266873
0.000648219
0.0275561
0.000308439
0.0277821
-8.44007e-05
0.0272131
-0.00058185
0.0256274
-0.00122031
0.0226957
-0.00215008
0.017951
-0.00372918
0.01095
-0.00673275
0.00302461
-0.0119392
-0.0153879
0.010733
0.0191254
0.0249544
0.0292674
0.032522
0.0350435
0.0370426
0.0386427
0.0399095
0.0408691
0.0415173
0.0418257
0.0417413
0.0411595
0.0399392
0.0377891
0.0340599
0.0273272
0.0153879
)
;

boundaryField
{
    movingWall
    {
        type            calculated;
        value           uniform 0;
    }
    fixedWalls
    {
        type            calculated;
        value           uniform 0;
    }
    frontAndBack
    {
        type            empty;
    }
}


// ************************************************************************* //
