/*--------------------------------*- C++ -*----------------------------------*\
  =========                 |
  \\      /  F ield         | OpenFOAM: The Open Source CFD Toolbox
   \\    /   O peration     | Website:  https://openfoam.org
    \\  /    A nd           | Version:  13
     \\/     M anipulation  |
\*---------------------------------------------------------------------------*/
FoamFile
{
    format      ascii;
    class       volVectorField;
    location    "22";
    object      U_0;
}
// * * * * * * * * * * * * * * * * * * * * * * * * * * * * * * * * * * * * * //

dimensions      [0 1 -1 0 0 0 0];

internalField   nonuniform List<vector> 
400
(
(0.000213543 -0.000214072 0)
(-9.36728e-05 -1.49698e-05 0)
(-0.001514 0.000202309 0)
(-0.00376271 0.000340546 0)
(-0.00651364 0.000413213 0)
(-0.00947137 0.000441446 0)
(-0.0123863 0.000435774 0)
(-0.0150255 0.000395696 0)
(-0.0171489 0.000314708 0)
(-0.0185104 0.000187257 0)
(-0.0188838 1.5695e-05 0)
(-0.0181133 -0.000186978 0)
(-0.0161731 -0.000388813 0)
(-0.0132176 -0.000547934 0)
(-0.00960382 -0.000620117 0)
(-0.00586023 -0.000573129 0)
(-0.00259524 -0.000400816 0)
(-0.000344004 -0.000134404 0)
(0.00058612 0.000143782 0)
(0.00032025 0.000307081 0)
(2.3463e-06 9.09485e-05 0)
(-0.00201775 0.00187313 0)
(-0.00641637 0.00366718 0)
(-0.0125485 0.00490651 0)
(-0.0196995 0.00556087 0)
(-0.0272145 0.00570048 0)
(-0.0344896 0.00537562 0)
(-0.0409451 0.00459383 0)
(-0.0460042 0.00334637 0)
(-0.0491112 0.00165297 0)
(-0.0497976 -0.000394454 0)
(-0.0477732 -0.00260563 0)
(-0.0430374 -0.00468742 0)
(-0.0359688 -0.00628287 0)
(-0.0273501 -0.00704501 0)
(-0.0183056 -0.00674082 0)
(-0.0101235 -0.00535751 0)
(-0.00396725 -0.00318 0)
(-0.000522486 -0.000840628 0)
(0.000244846 0.000614873 0)
(-0.000277818 0.00168036 0)
(-0.00439012 0.00643539 0)
(-0.0118366 0.0106162 0)
(-0.0215407 0.0134417 0)
(-0.0324715 0.0148688 0)
(-0.0437387 0.0150151 0)
(-0.054502 0.0139683 0)
(-0.0639475 0.0117524 0)
(-0.0712767 0.00838266 0)
(-0.0757411 0.00395581 0)
(-0.0767246 -0.00126654 0)
(-0.0738567 -0.00680761 0)
(-0.0671379 -0.0119841 0)
(-0.0570469 -0.0159826 0)
(-0.0445853 -0.018018 0)
(-0.0312243 -0.0175539 0)
(-0.018707 -0.0145403 0)
(-0.00869246 -0.00958897 0)
(-0.00231743 -0.00402873 0)
(8.96042e-05 6.79968e-05 0)
(-0.000532233 0.00454843 0)
(-0.00668636 0.0136258 0)
(-0.0170623 0.0208376 0)
(-0.0300796 0.0255174 0)
(-0.0443931 0.0277383 0)
(-0.0589383 0.0277093 0)
(-0.072724 0.0255681 0)
(-0.0847944 0.0213629 0)
(-0.0942142 0.0151487 0)
(-0.100104 0.00712448 0)
(-0.101726 -0.00224331 0)
(-0.0985954 -0.0121498 0)
(-0.0906191 -0.021456 0)
(-0.0782316 -0.028804 0)
(-0.0624894 -0.0328486 0)
(-0.0450793 -0.0326091 0)
(-0.0281581 -0.0278768 0)
(-0.0139627 -0.0195447 0)
(-0.00428198 -0.00969287 0)
(-3.65442e-05 -0.00145207 0)
(-0.000750656 0.00859728 0)
(-0.0087477 0.0232546 0)
(-0.0217891 0.0340543 0)
(-0.0378009 0.040762 0)
(-0.0551457 0.0437384 0)
(-0.0726304 0.043361 0)
(-0.0891803 0.0398456 0)
(-0.10377 0.0332711 0)
(-0.115389 0.0237285 0)
(-0.123061 0.011508 0)
(-0.125913 -0.00273627 0)
(-0.123281 -0.0178861 0)
(-0.114852 -0.032338 0)
(-0.100855 -0.0441274 0)
(-0.0822323 -0.0512075 0)
(-0.060771 -0.051932 0)
(-0.039047 -0.0456861 0)
(-0.0200403 -0.0334737 0)
(-0.00647987 -0.0181263 0)
(-0.000142568 -0.00399513 0)
(-0.000930434 0.0136711 0)
(-0.0104893 0.035033 0)
(-0.0258173 0.0499311 0)
(-0.0444138 0.058831 0)
(-0.0643978 0.0625523 0)
(-0.0844956 0.0617335 0)
(-0.103607 0.0567056 0)
(-0.1207 0.0475808 0)
(-0.134739 0.0344623 0)
(-0.144678 0.0176828 0)
(-0.149496 -0.00198415 0)
(-0.14828 -0.0231654 0)
(-0.140376 -0.0438433 0)
(-0.125631 -0.061406 0)
(-0.104672 -0.0729407 0)
(-0.0792113 -0.0758233 0)
(-0.052193 -0.0686278 0)
(-0.0275004 -0.0521335 0)
(-0.00917903 -0.0298672 0)
(-0.000263169 -0.00771363 0)
(-0.00106567 0.0195775 0)
(-0.0118365 0.0485793 0)
(-0.0289657 0.0680195 0)
(-0.0496226 0.0792791 0)
(-0.0717483 0.0837902 0)
(-0.0940375 0.0825454 0)
(-0.11542 0.0760327 0)
(-0.134915 0.0643974 0)
(-0.151521 0.0477159 0)
(-0.16416 0.0262875 0)
(-0.171665 0.000897306 0)
(-0.172851 -0.0269591 0)
(-0.166643 -0.0549386 0)
(-0.152328 -0.0798023 0)
(-0.129976 -0.0976283 0)
(-0.100948 -0.104445 0)
(-0.0683465 -0.097431 0)
(-0.0370079 -0.0765433 0)
(-0.0127321 -0.0457702 0)
(-0.000442745 -0.0129363 0)
(-0.00114876 0.0260849 0)
(-0.0127178 0.0634232 0)
(-0.0310595 0.0877551 0)
(-0.0531198 0.10153 0)
(-0.0767299 0.106921 0)
(-0.1006 0.105362 0)
(-0.123741 0.0975452 0)
(-0.145284 0.0836511 0)
(-0.164324 0.0636865 0)
(-0.179821 0.0378271 0)
(-0.190532 0.00673455 0)
(-0.195027 -0.0281523 0)
(-0.191781 -0.0643269 0)
(-0.179422 -0.0980426 0)
(-0.157207 -0.124322 0)
(-0.125748 -0.137502 0)
(-0.0878728 -0.132628 0)
(-0.049152 -0.107862 0)
(-0.0175287 -0.0670112 0)
(-0.000736495 -0.0201963 0)
(-0.00117549 0.0329264 0)
(-0.0130861 0.0790146 0)
(-0.0319658 0.108454 0)
(-0.0546361 0.124849 0)
(-0.0788787 0.131207 0)
(-0.103459 0.129493 0)
(-0.127516 0.120652 0)
(-0.150351 0.104918 0)
(-0.171239 0.0821949 0)
(-0.189273 0.0524524 0)
(-0.203257 0.0160857 0)
(-0.211636 -0.0257137 0)
(-0.212525 -0.0705296 0)
(-0.203884 -0.114363 0)
(-0.183961 -0.151319 0)
(-0.152173 -0.173859 0)
(-0.110383 -0.174134 0)
(-0.064259 -0.147103 0)
(-0.0239713 -0.0950083 0)
(-0.00122028 -0.0302486 0)
(-0.00115255 0.0398224 0)
(-0.0129579 0.094755 0)
(-0.0316617 0.129334 0)
(-0.0540369 0.148329 0)
(-0.0778615 0.155666 0)
(-0.101991 0.153916 0)
(-0.125733 0.144348 0)
(-0.148622 0.127278 0)
(-0.170193 0.102509 0)
(-0.189803 0.0697504 0)
(-0.206467 0.0290166 0)
(-0.218703 -0.01895 0)
(-0.224488 -0.0721087 0)
(-0.221265 -0.126624 0)
(-0.20623 -0.176079 0)
(-0.177225 -0.211208 0)
(-0.13432 -0.220717 0)
(-0.0821197 -0.194662 0)
(-0.0324326 -0.131231 0)
(-0.00200749 -0.0440858 0)
(-0.00110791 0.0465307 0)
(-0.0124661 0.110067 0)
(-0.0303246 0.149563 0)
(-0.051447 0.170927 0)
(-0.07364 0.179075 0)
(-0.09589 0.177269 0)
(-0.117722 0.167179 0)
(-0.138955 0.149262 0)
(-0.159469 0.123253 0)
(-0.179007 0.0886021 0)
(-0.196983 0.0448925 0)
(-0.212217 -0.00772083 0)
(-0.222892 -0.0680078 0)
(-0.226271 -0.132655 0)
(-0.218692 -0.195419 0)
(-0.196296 -0.245942 0)
(-0.156606 -0.269495 0)
(-0.101609 -0.249644 0)
(-0.0431484 -0.176831 0)
(-0.00327167 -0.0629383 0)
(-0.00110597 0.0529314 0)
(-0.0119268 0.124508 0)
(-0.0284324 0.168355 0)
(-0.0473771 0.191522 0)
(-0.0666282 0.200021 0)
(-0.0853768 0.197902 0)
(-0.103429 0.187308 0)
(-0.120947 0.168912 0)
(-0.138217 0.142439 0)
(-0.155452 0.107134 0)
(-0.172597 0.0621572 0)
(-0.189153 0.00699214 0)
(-0.20374 -0.0580683 0)
(-0.21383 -0.130835 0)
(-0.215541 -0.20607 0)
(-0.203582 -0.273449 0)
(-0.172567 -0.315692 0)
(-0.120278 -0.309124 0)
(-0.0559908 -0.232025 0)
(-0.00526751 -0.0882238 0)
(-0.00127381 0.0591614 0)
(-0.0119284 0.137922 0)
(-0.0268632 0.18508 0)
(-0.0428172 0.209001 0)
(-0.0577804 0.21699 0)
(-0.0712988 0.213987 0)
(-0.0835698 0.202667 0)
(-0.0951658 0.18397 0)
(-0.106817 0.157683 0)
(-0.119248 0.122928 0)
(-0.133018 0.0785224 0)
(-0.14833 0.0233209 0)
(-0.164652 -0.0432888 0)
(-0.180272 -0.12071 0)
(-0.191694 -0.205513 0)
(-0.193027 -0.288905 0)
(-0.17633 -0.352953 0)
(-0.134118 -0.367616 0)
(-0.0700808 -0.295226 0)
(-0.00832723 -0.121379 0)
(-0.00184974 0.0658201 0)
(-0.013459 0.15062 0)
(-0.0269731 0.199357 0)
(-0.0392326 0.222299 0)
(-0.0485072 0.228418 0)
(-0.0549831 0.223625 0)
(-0.0594283 0.211126 0)
(-0.0629085 0.192124 0)
(-0.0666088 0.166502 0)
(-0.0717365 0.133343 0)
(-0.0794265 0.0912644 0)
(-0.0906064 0.03867 0)
(-0.105718 -0.0259423 0)
(-0.124245 -0.103478 0)
(-0.143915 -0.192896 0)
(-0.159458 -0.288459 0)
(-0.161632 -0.374325 0)
(-0.137666 -0.417151 0)
(-0.0832648 -0.36208 0)
(-0.0127831 -0.163493 0)
(-0.00328669 0.0743312 0)
(-0.0180841 0.163582 0)
(-0.0305626 0.211076 0)
(-0.0382815 0.230364 0)
(-0.0401686 0.232663 0)
(-0.037544 0.224869 0)
(-0.0320051 0.210585 0)
(-0.0252076 0.191166 0)
(-0.0187795 0.166549 0)
(-0.0143269 0.135814 0)
(-0.0134402 0.097505 0)
(-0.0176541 0.0498013 0)
(-0.028316 -0.00934746 0)
(-0.046238 -0.0820347 0)
(-0.070981 -0.169592 0)
(-0.099242 -0.270378 0)
(-0.122593 -0.373681 0)
(-0.124376 -0.4481 0)
(-0.0915511 -0.424655 0)
(-0.0187138 -0.214584 0)
(-0.0063641 0.0873948 0)
(-0.0280137 0.178255 0)
(-0.0392849 0.219864 0)
(-0.0405833 0.231585 0)
(-0.0323325 0.227556 0)
(-0.01777 0.215413 0)
(0.00036533 0.198792 0)
(0.0197531 0.178926 0)
(0.038379 0.155669 0)
(0.0543655 0.128076 0)
(0.0658395 0.0947033 0)
(0.0708664 0.0537281 0)
(0.0674124 0.0029626 0)
(0.0535195 -0.0602681 0)
(0.0276569 -0.138973 0)
(-0.00977714 -0.235628 0)
(-0.0537709 -0.347021 0)
(-0.086619 -0.450321 0)
(-0.0885214 -0.470848 0)
(-0.0253077 -0.272263 0)
(-0.0125248 0.110609 0)
(-0.045221 0.196706 0)
(-0.0514549 0.224536 0)
(-0.040878 0.223116 0)
(-0.017041 0.209828 0)
(0.0139251 0.192192 0)
(0.048011 0.173105 0)
(0.0823751 0.15319 0)
(0.114843 0.131969 0)
(0.143505 0.108394 0)
(0.166452 0.081084 0)
(0.181611 0.0483848 0)
(0.186563 0.00832314 0)
(0.178636 -0.0416923 0)
(0.154754 -0.105192 0)
(0.112458 -0.187486 0)
(0.0512001 -0.293354 0)
(-0.0143177 -0.414486 0)
(-0.064335 -0.485121 0)
(-0.0295906 -0.33046 0)
(-0.0216114 0.148418 0)
(-0.0652293 0.213122 0)
(-0.0493951 0.215067 0)
(-0.0130344 0.195088 0)
(0.0358838 0.171611 0)
(0.0887299 0.1496 0)
(0.141269 0.129844 0)
(0.191058 0.111754 0)
(0.236462 0.0943074 0)
(0.276064 0.0763378 0)
(0.30832 0.0566078 0)
(0.33139 0.033787 0)
(0.342838 0.00634863 0)
(0.339852 -0.0276609 0)
(0.318521 -0.0712353 0)
(0.274658 -0.130264 0)
(0.202172 -0.214988 0)
(0.107941 -0.334974 0)
(-0.00320569 -0.451462 0)
(-0.0232653 -0.378734 0)
(-0.0274722 0.229336 0)
(-0.0364931 0.22312 0)
(0.0465601 0.176951 0)
(0.127045 0.138741 0)
(0.205599 0.1095 0)
(0.277485 0.0878753 0)
(0.341786 0.0715776 0)
(0.398479 0.0585815 0)
(0.447615 0.0473866 0)
(0.488953 0.0368462 0)
(0.521793 0.0260108 0)
(0.544922 0.0140236 0)
(0.556396 5.99246e-06 0)
(0.553887 -0.0170363 0)
(0.533364 -0.0390876 0)
(0.490588 -0.0704554 0)
(0.415321 -0.120934 0)
(0.304904 -0.213375 0)
(0.125881 -0.348318 0)
(0.0236679 -0.37879 0)
(0.21444 0.135797 0)
(0.285137 0.0984497 0)
(0.444656 0.0569153 0)
(0.547913 0.036584 0)
(0.621662 0.0241691 0)
(0.678248 0.0163206 0)
(0.722822 0.0113359 0)
(0.758412 0.00800677 0)
(0.786852 0.00557322 0)
(0.809035 0.00357116 0)
(0.825147 0.00169403 0)
(0.834863 -0.000271398 0)
(0.837313 -0.0025067 0)
(0.83119 -0.00505114 0)
(0.813548 -0.00850241 0)
(0.781941 -0.0135056 0)
(0.72408 -0.0231768 0)
(0.635276 -0.0406016 0)
(0.43131 -0.0912947 0)
(0.270899 -0.153523 0)
)
;

boundaryField
{
    movingWall
    {
        type            calculated;
        value           uniform (1 0 0);
    }
    fixedWalls
    {
        type            calculated;
        value           uniform (0 0 0);
    }
    frontAndBack
    {
        type            empty;
    }
}


// ************************************************************************* //
