/*--------------------------------*- C++ -*----------------------------------*\
  =========                 |
  \\      /  F ield         | OpenFOAM: The Open Source CFD Toolbox
   \\    /   O peration     | Website:  https://openfoam.org
    \\  /    A nd           | Version:  13
     \\/     M anipulation  |
\*---------------------------------------------------------------------------*/
FoamFile
{
    format      ascii;
    class       volScalarField;
    location    "32";
    object      p;
}
// * * * * * * * * * * * * * * * * * * * * * * * * * * * * * * * * * * * * * //

dimensions      [0 2 -2 0 0 0 0];

internalField   nonuniform List<scalar> 
400
(
2.5699e-07
-0.000572249
-0.00121584
-0.00171871
-0.00195906
-0.00188454
-0.00147033
-0.000705368
0.000401459
0.00180611
0.00341484
0.00507517
0.00659121
0.00775126
0.00837996
0.0083958
0.00785551
0.00696907
0.00604819
0.00549451
0.00057012
-2.0156e-05
-0.000569533
-0.000956883
-0.00113186
-0.00106183
-0.000725836
-0.000109092
0.000788931
0.00193961
0.00326994
0.00466028
0.00594086
0.00692998
0.00747442
0.00750196
0.00705939
0.00631901
0.00554342
0.00497281
0.00124587
0.000493137
-8.65795e-05
-0.000441221
-0.000605997
-0.000576139
-0.000337133
0.000132737
0.000849847
0.00180705
0.002955
0.00419195
0.00536459
0.00629398
0.00681943
0.00685309
0.00642094
0.00566836
0.00480911
0.00403736
0.00174076
0.000763867
7.38126e-05
-0.000321798
-0.00053697
-0.000592577
-0.000478077
-0.000160007
0.000400181
0.00122224
0.00228184
0.00349302
0.00470187
0.0057099
0.00631958
0.00639835
0.00593371
0.00505076
0.00394859
0.00284462
0.00179564
0.000595909
-0.000227527
-0.000704667
-0.00101798
-0.00120707
-0.00125919
-0.00112283
-0.000730332
-2.7663e-05
0.000991919
0.00226377
0.00363024
0.00486143
0.00569888
0.00593253
0.00548061
0.0044357
0.00300013
0.00146229
0.00119487
-0.000202843
-0.00116309
-0.00175252
-0.00221123
-0.00259048
-0.00286907
-0.00297101
-0.00279173
-0.00223274
-0.00124388
0.000150708
0.00179304
0.00342004
0.00469043
0.00527495
0.00497212
0.00380589
0.00197922
-0.000103841
-0.000241445
-0.00179991
-0.00289205
-0.00362201
-0.0042775
-0.00491643
-0.00550486
-0.00593732
-0.00606434
-0.00572823
-0.00480671
-0.00328497
-0.00127014
0.000946901
0.0029265
0.00417008
0.00427948
0.00313576
0.000902826
-0.00185604
-0.00265174
-0.00432616
-0.00554104
-0.00643906
-0.00734689
-0.0083275
-0.00933365
-0.0102285
-0.010811
-0.0108502
-0.0101333
-0.00853878
-0.00610684
-0.00311204
-8.62102e-05
0.00225526
0.00321287
0.0023955
-0.000177148
-0.00375273
-0.00612113
-0.00786149
-0.00918452
-0.0102716
-0.0114828
-0.0128891
-0.0144342
-0.0159526
-0.0171893
-0.0178274
-0.0175351
-0.0160425
-0.0132529
-0.00935728
-0.00493581
-0.000941192
0.0015083
0.0015548
-0.00113693
-0.00564657
-0.0106713
-0.0124234
-0.0138273
-0.0151018
-0.016642
-0.0185355
-0.0207269
-0.0230302
-0.0251402
-0.0266489
-0.0270838
-0.0259773
-0.023034
-0.0182539
-0.0121675
-0.00592192
-0.00114207
0.000603245
-0.00173117
-0.00719492
-0.0162603
-0.0179651
-0.0193955
-0.0208059
-0.0226413
-0.0250231
-0.0279111
-0.0311112
-0.0342772
-0.0369136
-0.038395
-0.0380064
-0.0352839
-0.0298333
-0.0220049
-0.0130062
-0.00495959
-0.000375347
-0.00151581
-0.00772046
-0.0228027
-0.0243898
-0.0257424
-0.0271482
-0.0291433
-0.0319104
-0.0354422
-0.0395491
-0.0438546
-0.0477844
-0.0505797
-0.0513769
-0.0491632
-0.0433937
-0.0339886
-0.0219775
-0.00980571
-0.00102455
0.00028026
-0.00599979
-0.0302223
-0.031586
-0.0326693
-0.0337918
-0.0356679
-0.0385797
-0.0425687
-0.0474548
-0.052834
-0.0580624
-0.0622508
-0.0643103
-0.063022
-0.0573318
-0.0466926
-0.0317047
-0.0148009
-0.000416861
0.00496581
2.30139e-05
-0.0385597
-0.0394892
-0.039961
-0.0403267
-0.0416347
-0.0443093
-0.0484453
-0.0538591
-0.0601056
-0.0664652
-0.0719292
-0.0752212
-0.0748701
-0.0694211
-0.0578068
-0.0400019
-0.018023
0.00327975
0.0146988
0.0135559
-0.0481745
-0.0481567
-0.0474032
-0.0462839
-0.0464118
-0.048371
-0.0522812
-0.0579129
-0.0647391
-0.0719351
-0.0783604
-0.082561
-0.082832
-0.0773736
-0.064645
-0.0439368
-0.0165432
0.0130191
0.0329313
0.0392809
-0.0602347
-0.0579574
-0.054867
-0.0512132
-0.0494269
-0.0501782
-0.0535201
-0.0590934
-0.0662198
-0.0739185
-0.0808792
-0.0854532
-0.0857067
-0.0795196
-0.0649417
-0.040611
-0.00697866
0.032817
0.064794
0.083677
-0.0774812
-0.069473
-0.0620872
-0.0545492
-0.0501388
-0.0493249
-0.0519042
-0.0572608
-0.064486
-0.0723848
-0.0794397
-0.0837781
-0.0832182
-0.0752828
-0.0576212
-0.0282111
0.0133526
0.0666612
0.115752
0.154807
-0.108925
-0.0850399
-0.0697732
-0.0563914
-0.0485409
-0.045881
-0.0476241
-0.0527148
-0.059917
-0.0677768
-0.0745521
-0.0781399
-0.0761042
-0.0655424
-0.0436431
-0.0074449
0.0447433
0.114933
0.188078
0.263281
-0.168693
-0.100746
-0.0730929
-0.052288
-0.04131
-0.0376995
-0.0394418
-0.0448653
-0.0524156
-0.0604467
-0.0670737
-0.0700477
-0.0666873
-0.0537882
-0.0278897
0.0154101
0.0800718
0.17276
0.285855
0.445986
-0.402754
-0.139031
-0.073459
-0.04473
-0.0305716
-0.0266174
-0.0290854
-0.0353733
-0.0436539
-0.0522072
-0.0591238
-0.0621454
-0.0586173
-0.0452138
-0.0174507
0.0310788
0.108496
0.236657
0.427487
0.79368
)
;

boundaryField
{
    movingWall
    {
        type            zeroGradient;
    }
    fixedWalls
    {
        type            zeroGradient;
    }
    frontAndBack
    {
        type            empty;
    }
}


// ************************************************************************* //
