/*--------------------------------*- C++ -*----------------------------------*\
  =========                 |
  \\      /  F ield         | OpenFOAM: The Open Source CFD Toolbox
   \\    /   O peration     | Website:  https://openfoam.org
    \\  /    A nd           | Version:  13
     \\/     M anipulation  |
\*---------------------------------------------------------------------------*/
FoamFile
{
    format      ascii;
    class       volScalarField;
    location    "29";
    object      p;
}
// * * * * * * * * * * * * * * * * * * * * * * * * * * * * * * * * * * * * * //

dimensions      [0 2 -2 0 0 0 0];

internalField   nonuniform List<scalar> 
400
(
4.48781e-07
-0.000572033
-0.00121563
-0.0017185
-0.00195883
-0.0018843
-0.00147009
-0.000705137
0.000401685
0.00180634
0.00341508
0.0050754
0.00659143
0.00775149
0.00838019
0.00839602
0.00785574
0.00696931
0.00604842
0.00549475
0.000570334
-1.99319e-05
-0.000569302
-0.000956664
-0.00113165
-0.00106161
-0.000725597
-0.000108855
0.000789161
0.00193984
0.00327017
0.00466051
0.00594109
0.0069302
0.00747464
0.00750219
0.00705962
0.00631925
0.00554367
0.00497305
0.00124608
0.000493347
-8.63488e-05
-0.00044099
-0.000605777
-0.000575921
-0.000336904
0.000132972
0.000850082
0.00180728
0.00295524
0.00419219
0.00536483
0.00629422
0.00681966
0.00685331
0.00642117
0.0056686
0.00480936
0.0040376
0.00174097
0.000764068
7.40305e-05
-0.000321568
-0.000536744
-0.000592359
-0.000477855
-0.000159776
0.000400419
0.00122248
0.00228209
0.00349327
0.00470212
0.00571015
0.00631982
0.00639858
0.00593394
0.005051
0.00394884
0.00284487
0.00179586
0.000596117
-0.000227319
-0.000704447
-0.00101776
-0.00120684
-0.00125897
-0.00112261
-0.000730092
-2.74115e-05
0.000992178
0.00226403
0.0036305
0.00486169
0.00569912
0.00593277
0.00548085
0.00443594
0.00300038
0.00146254
0.00119509
-0.000202621
-0.00116289
-0.00175231
-0.00221101
-0.00259026
-0.00286885
-0.00297078
-0.00279149
-0.00223248
-0.00124361
0.000150982
0.00179331
0.0034203
0.00469069
0.00527519
0.00497237
0.00380615
0.00197948
-0.000103579
-0.000241229
-0.00179968
-0.00289183
-0.0036218
-0.00427728
-0.0049162
-0.00550462
-0.00593708
-0.00606409
-0.00572797
-0.00480643
-0.00328469
-0.00126985
0.000947179
0.00292677
0.00417034
0.00427974
0.00313602
0.000903091
-0.00185577
-0.00265153
-0.00432593
-0.00554081
-0.00643883
-0.00734666
-0.00832727
-0.0093334
-0.0102282
-0.0108107
-0.0108499
-0.010133
-0.00853848
-0.00610654
-0.00311174
-8.59235e-05
0.00225554
0.00321314
0.00239577
-0.000176878
-0.00375246
-0.00612091
-0.00786126
-0.00918428
-0.0102713
-0.0114825
-0.0128888
-0.0144339
-0.0159524
-0.0171891
-0.0178271
-0.0175348
-0.0160422
-0.0132525
-0.00935697
-0.00493551
-0.000940901
0.00150858
0.00155508
-0.00113666
-0.0056463
-0.010671
-0.0124232
-0.013827
-0.0151016
-0.0166417
-0.0185353
-0.0207266
-0.0230299
-0.0251399
-0.0266486
-0.0270835
-0.025977
-0.0230337
-0.0182535
-0.0121672
-0.00592161
-0.00114178
0.000603523
-0.00173089
-0.00719465
-0.01626
-0.0179648
-0.0193952
-0.0208057
-0.022641
-0.0250228
-0.0279108
-0.0311109
-0.0342769
-0.0369133
-0.0383947
-0.0380061
-0.0352835
-0.029833
-0.0220046
-0.0130059
-0.0049593
-0.000375065
-0.00151553
-0.00772018
-0.0228024
-0.0243895
-0.0257422
-0.0271479
-0.0291429
-0.0319101
-0.0354418
-0.0395488
-0.0438543
-0.047784
-0.0505793
-0.0513765
-0.0491628
-0.0433934
-0.0339883
-0.0219771
-0.00980541
-0.00102427
0.000280536
-0.00599951
-0.030222
-0.0315857
-0.0326691
-0.0337915
-0.0356676
-0.0385793
-0.0425684
-0.0474544
-0.0528337
-0.058062
-0.0622504
-0.06431
-0.0630217
-0.0573314
-0.0466923
-0.0317044
-0.0148006
-0.000416578
0.00496609
2.32836e-05
-0.0385595
-0.0394889
-0.0399607
-0.0403264
-0.0416344
-0.044309
-0.048445
-0.0538587
-0.0601053
-0.0664648
-0.0719288
-0.0752209
-0.0748698
-0.0694208
-0.0578065
-0.0400016
-0.0180228
0.00328003
0.0146991
0.0135562
-0.0481742
-0.0481564
-0.0474029
-0.0462836
-0.0464115
-0.0483707
-0.0522809
-0.0579126
-0.0647388
-0.0719348
-0.07836
-0.0825607
-0.0828317
-0.0773733
-0.0646447
-0.0439365
-0.016543
0.0130193
0.0329315
0.0392812
-0.0602344
-0.0579572
-0.0548667
-0.051213
-0.0494267
-0.0501779
-0.0535198
-0.0590931
-0.0662195
-0.0739182
-0.0808789
-0.0854529
-0.0857064
-0.0795194
-0.0649415
-0.0406108
-0.00697843
0.0328172
0.0647942
0.0836772
-0.0774809
-0.0694727
-0.062087
-0.054549
-0.0501385
-0.0493246
-0.0519039
-0.0572605
-0.0644857
-0.0723844
-0.0794394
-0.0837778
-0.083218
-0.0752825
-0.057621
-0.0282109
0.0133528
0.0666614
0.115753
0.154808
-0.108925
-0.0850396
-0.0697729
-0.0563912
-0.0485406
-0.0458807
-0.0476238
-0.0527145
-0.0599167
-0.0677765
-0.0745518
-0.0781396
-0.0761039
-0.0655421
-0.0436428
-0.00744469
0.0447435
0.114933
0.188079
0.263281
-0.168693
-0.100745
-0.0730927
-0.0522878
-0.0413098
-0.0376993
-0.0394416
-0.044865
-0.0524153
-0.0604464
-0.0670734
-0.0700474
-0.0666871
-0.053788
-0.0278894
0.0154103
0.0800719
0.17276
0.285855
0.445986
-0.402754
-0.13903
-0.0734588
-0.0447298
-0.0305714
-0.0266171
-0.0290852
-0.035373
-0.0436536
-0.0522069
-0.0591235
-0.0621451
-0.058617
-0.0452136
-0.0174505
0.031079
0.108496
0.236657
0.427488
0.79368
)
;

boundaryField
{
    movingWall
    {
        type            zeroGradient;
    }
    fixedWalls
    {
        type            zeroGradient;
    }
    frontAndBack
    {
        type            empty;
    }
}


// ************************************************************************* //
