/*--------------------------------*- C++ -*----------------------------------*\
  =========                 |
  \\      /  F ield         | OpenFOAM: The Open Source CFD Toolbox
   \\    /   O peration     | Website:  https://openfoam.org
    \\  /    A nd           | Version:  13
     \\/     M anipulation  |
\*---------------------------------------------------------------------------*/
FoamFile
{
    format      ascii;
    class       surfaceScalarField;
    location    "29";
    object      phi_0;
}
// * * * * * * * * * * * * * * * * * * * * * * * * * * * * * * * * * * * * * //

dimensions      [0 3 -1 0 0 0 0];

internalField   nonuniform List<scalar> 
760
(
4.39463e-06
-4.39961e-06
-3.89739e-05
4.33685e-05
-0.000131157
9.21835e-05
-0.00025659
0.000125432
-0.000399493
0.000142903
-0.00054641
0.000146917
-0.000685401
0.000138991
-0.0008047
0.000119299
-0.000892148
8.74479e-05
-0.000935897
4.37485e-05
-0.000926242
-9.65504e-06
-0.000858567
-6.76748e-05
-0.000735932
-0.000122635
-0.000571087
-0.000164845
-0.000386252
-0.000184835
-0.000210072
-0.00017618
-7.16527e-05
-0.000138419
7.53053e-06
-7.91832e-05
2.35969e-05
-1.60664e-05
2.35969e-05
-4.7077e-05
4.26774e-05
-0.000210003
0.000206294
-0.000473793
0.000355974
-0.000806028
0.000457666
-0.00117279
0.000509668
-0.00154262
0.000516746
-0.00188602
0.00048239
-0.00217412
0.000407396
-0.0023786
0.000291935
-0.00247378
0.000138925
-0.00244068
-4.27534e-05
-0.00227174
-0.000236617
-0.00197639
-0.000417982
-0.00158359
-0.000557648
-0.00114111
-0.000627313
-0.000709513
-0.000607778
-0.000350412
-0.00049752
-0.000110603
-0.000318992
-5.66877e-06
-0.000121001
1.79282e-05
-0.000111453
0.00015413
-0.000405325
0.000500167
-0.00083476
0.000785408
-0.00135039
0.000973295
-0.00190532
0.0010646
-0.00245608
0.0010675
-0.00296138
0.000987689
-0.00338094
0.000826964
-0.0036761
0.000587095
-0.00381268
0.000275502
-0.00376593
-8.95068e-05
-0.00352641
-0.00047613
-0.00310599
-0.000838402
-0.0025416
-0.00112204
-0.00189516
-0.00127375
-0.00124729
-0.00125564
-0.000683477
-0.00106134
-0.000273875
-0.000728594
-5.21076e-05
-0.000342769
-3.41793e-05
-0.000173177
0.000327307
-0.000593717
0.000920707
-0.00117948
0.00137117
-0.00186214
0.00165596
-0.00258344
0.0017859
-0.00329161
0.00177567
-0.00393802
0.0016341
-0.00447545
0.00136439
-0.00485853
0.000970182
-0.00504678
0.000463748
-0.00500953
-0.00012676
-0.00473213
-0.000753524
-0.00422298
-0.00134756
-0.0035192
-0.00182581
-0.00268946
-0.00210349
-0.00183013
-0.00211498
-0.00105163
-0.00183983
-0.00045458
-0.00132565
-0.00010196
-0.000695389
-0.000136139
-0.000228306
0.000555613
-0.000763711
0.00145611
-0.00149121
0.00209867
-0.00232417
0.00248891
-0.0031946
0.00265633
-0.00404525
0.00262632
-0.00482367
0.00241253
-0.00547903
0.00201974
-0.00596166
0.00145282
-0.00622529
0.000727372
-0.00623143
-0.000120617
-0.00595538
-0.00102957
-0.0053949
-0.00190804
-0.00457899
-0.00264173
-0.00357588
-0.0031066
-0.00249492
-0.00319595
-0.0014758
-0.00285895
-0.000660971
-0.00214047
-0.000156597
-0.00119976
-0.000292736
-0.000274793
0.000830406
-0.000908233
0.00208955
-0.00175767
0.00294811
-0.0027209
0.00345214
-0.0037225
0.00365792
-0.0047024
0.00360622
-0.00560734
0.00331748
-0.00638573
0.00279813
-0.00698555
0.00205264
-0.00735502
0.00109684
-0.00744602
-2.96171e-05
-0.00721875
-0.00125684
-0.00665305
-0.00247374
-0.00576028
-0.0035345
-0.00459878
-0.0042681
-0.0032851
-0.00450962
-0.00199097
-0.00415309
-0.000914138
-0.0032173
-0.00022326
-0.00189064
-0.000515996
-0.000310714
0.00114112
-0.0010209
0.00279974
-0.00196695
0.00389417
-0.00303494
0.00452013
-0.00414472
0.0047677
-0.00523606
0.00469756
-0.00625774
0.00433916
-0.00716024
0.00370063
-0.00789162
0.00278402
-0.00839599
0.00160121
-0.00861415
0.000188536
-0.00848989
-0.00138109
-0.00797784
-0.00298579
-0.00706153
-0.00445081
-0.00577623
-0.0055534
-0.00423341
-0.00605245
-0.0026328
-0.0057537
-0.00123953
-0.00461057
-0.000311405
-0.00281876
-0.000827401
-0.000334155
0.00147527
-0.00109555
0.00356113
-0.00210699
0.00490561
-0.00324692
0.00566005
-0.00443319
0.00595397
-0.00560788
0.00587225
-0.00672456
0.00545584
-0.00773896
0.00471503
-0.00860252
0.00364758
-0.00925837
0.00225706
-0.0096397
0.000569869
-0.00967261
-0.00134818
-0.00928431
-0.00337409
-0.00842123
-0.00531389
-0.00707922
-0.00689541
-0.00534357
-0.00778809
-0.00342561
-0.00767166
-0.0016617
-0.00637448
-0.000431581
-0.00404888
-0.00125898
-0.000343866
0.00181914
-0.00112767
0.00434493
-0.00216777
0.00594571
-0.00333856
0.00683085
-0.00455826
0.00717367
-0.00577344
0.00708743
-0.00694513
0.00662753
-0.00803778
0.00580767
-0.00901071
0.00462051
-0.00981161
0.00305797
-0.0103719
0.00113019
-0.0106057
-0.00111441
-0.0104147
-0.00356509
-0.00970329
-0.00602531
-0.00841167
-0.00818703
-0.00657029
-0.00962947
-0.00436862
-0.00987333
-0.00219924
-0.00854386
-0.000595132
-0.00565299
-0.00185411
-0.000340398
0.00215954
-0.00111711
0.00512165
-0.00214539
0.00697399
-0.00329821
0.00798367
-0.00449605
0.00837151
-0.00569192
0.0082833
-0.00685686
0.00779247
-0.00796762
0.00691843
-0.00899666
0.00564955
-0.00990353
0.00396484
-0.0106273
0.00185395
-0.01108
-0.000661734
-0.0111478
-0.0034972
-0.0106959
-0.00647731
-0.0095983
-0.00928459
-0.00780011
-0.0114277
-0.00541866
-0.0122548
-0.00285705
-0.0111055
-0.000813804
-0.00769624
-0.00266792
-0.000327668
0.00248721
-0.00107161
0.00586559
-0.00204752
0.0079499
-0.00312809
0.00906424
-0.004238
0.00948142
-0.00533893
0.00938424
-0.00641444
0.00886798
-0.00745703
0.00796102
-0.00845739
0.0066499
-0.00939457
0.00490203
-0.0102266
0.00268601
-0.0108749
-1.35036e-05
-0.0112316
-0.00314045
-0.0111328
-0.00657609
-0.0103901
-0.0100274
-0.00884067
-0.012977
-0.00647169
-0.0146238
-0.00361423
-0.0139629
-0.00109821
-0.0102123
-0.00376613
-0.000315006
0.00280221
-0.00101102
0.0065616
-0.00189905
0.00883793
-0.0028514
0.0100166
-0.0038
0.01043
-0.00471868
0.0103029
-0.00560656
0.00975586
-0.00647481
0.00882927
-0.00733608
0.00751117
-0.00819481
0.00576076
-0.00903625
0.00352744
-0.00981818
0.00076843
-0.0104385
-0.00252013
-0.0107416
-0.006273
-0.0104956
-0.0102733
-0.00942919
-0.0140435
-0.0073503
-0.0167026
-0.00440755
-0.0169057
-0.00145377
-0.013166
-0.0052199
-0.000320151
0.00312236
-0.000972021
0.00721347
-0.00174702
0.00961293
-0.00251683
0.0107864
-0.00322709
0.0111403
-0.00387019
0.010946
-0.00446521
0.0103509
-0.00504462
0.00940868
-0.00564488
0.00811143
-0.00629847
0.00641435
-0.00702457
0.00425354
-0.00781659
0.00156046
-0.00861884
-0.00171788
-0.00930325
-0.00558859
-0.00963535
-0.00994122
-0.00926553
-0.0144133
-0.00780701
-0.0181612
-0.00511449
-0.0195982
-0.00187244
-0.0164081
-0.00709234
-0.000374071
0.00349643
-0.00101323
0.00785263
-0.00166244
0.0102621
-0.00219633
0.0113203
-0.00258766
0.0115316
-0.00285861
0.011217
-0.00305482
0.0105471
-0.00323233
0.00958619
-0.00345094
0.00833004
-0.00376946
0.00673287
-0.00423981
0.00472389
-0.00489721
0.00221785
-0.00574097
-0.000874125
-0.00670347
-0.00462609
-0.00759856
-0.00904613
-0.00806159
-0.0139503
-0.00754675
-0.018676
-0.00554237
-0.0216026
-0.00231875
-0.0196317
-0.00941109
-0.000529447
0.00402588
-0.00121871
0.0085419
-0.00173228
0.0107757
-0.00196516
0.0115532
-0.00194331
0.0115098
-0.00173664
0.0110103
-0.00142606
0.0102365
-0.00109332
0.00925345
-0.000819199
0.00805592
-0.000683737
0.0065974
-0.000765249
0.00480541
-0.00113631
0.00258892
-0.0018525
-0.000157932
-0.00292496
-0.00355363
-0.00426454
-0.00770655
-0.00557759
-0.0126372
-0.00625524
-0.0179984
-0.00542587
-0.0224319
-0.00270917
-0.0223484
-0.0121203
-0.000868734
0.00489461
-0.00168415
0.00935732
-0.0020135
0.0111051
-0.00182739
0.011367
-0.00125254
0.0109349
-0.000432102
0.0101898
0.000508212
0.0092962
0.00146082
0.00830084
0.00232851
0.00718823
0.00301743
0.00590849
0.00343195
0.00439089
0.00347254
0.00254832
0.0030376
0.000277005
0.00203948
-0.0025555
0.000444149
-0.00611123
-0.00160996
-0.0105831
-0.00360094
-0.0160074
-0.00441534
-0.0216175
-0.00288084
-0.0238829
-0.0150011
-0.00149474
0.00638936
-0.00241123
0.0102738
-0.00233096
0.0110248
-0.00145106
0.0104871
-7.61509e-05
0.00956002
0.00155327
0.00856043
0.00326669
0.00758279
0.00493957
0.00662795
0.00647016
0.00565765
0.00776293
0.00461572
0.00871777
0.00343605
0.00922261
0.00204348
0.00914727
0.000352348
0.00834963
-0.00175787
0.00668349
-0.00444509
0.00408871
-0.00798834
0.000840756
-0.0127594
-0.00200516
-0.0187716
-0.00250291
-0.0233852
-0.017504
-0.00234101
0.00873036
-0.0028199
0.0107527
-0.00158539
0.00979029
0.000573866
0.00832788
0.00312129
0.00701259
0.00575794
0.00592378
0.00831751
0.00502321
0.0106989
0.00424652
0.0128262
0.00353041
0.0146252
0.00281669
0.0160107
0.00205052
0.016877
0.00117721
0.0170878
0.000141504
0.0164809
-0.00115096
0.0148419
-0.00280603
0.0119354
-0.00508187
0.0076498
-0.00847381
0.00261201
-0.0137338
-0.000908527
-0.0198646
-0.0184125
-0.00200263
0.010733
0.000357661
0.0083924
0.00431899
0.00582896
0.00833387
0.00431301
0.0120918
0.00325468
0.0154941
0.00252149
0.0185181
0.00199916
0.0211646
0.00160008
0.0234282
0.0012668
0.0252852
0.000959615
0.0266876
0.000648204
0.0275564
0.000308417
0.0277823
-8.44278e-05
0.0272132
-0.000581874
0.0256275
-0.00122032
0.0226957
-0.0021501
0.0179511
-0.00372918
0.01095
-0.00673275
0.00302462
-0.0119392
-0.0153879
0.010733
0.0191254
0.0249544
0.0292674
0.032522
0.0350435
0.0370427
0.0386428
0.0399096
0.0408692
0.0415174
0.0418258
0.0417414
0.0411595
0.0399392
0.0377891
0.0340599
0.0273272
0.0153879
)
;

boundaryField
{
    movingWall
    {
        type            calculated;
        value           uniform 0;
    }
    fixedWalls
    {
        type            calculated;
        value           uniform 0;
    }
    frontAndBack
    {
        type            empty;
    }
}


// ************************************************************************* //
