/*--------------------------------*- C++ -*----------------------------------*\
  =========                 |
  \\      /  F ield         | OpenFOAM: The Open Source CFD Toolbox
   \\    /   O peration     | Website:  https://openfoam.org
    \\  /    A nd           | Version:  13
     \\/     M anipulation  |
\*---------------------------------------------------------------------------*/
FoamFile
{
    format      ascii;
    class       volVectorField;
    location    "29";
    object      U;
}
// * * * * * * * * * * * * * * * * * * * * * * * * * * * * * * * * * * * * * //

dimensions      [0 1 -1 0 0 0 0];

internalField   nonuniform List<vector> 
400
(
(0.000213624 -0.000214046 0)
(-9.35607e-05 -1.496e-05 0)
(-0.00151402 0.000202321 0)
(-0.00376291 0.000340568 0)
(-0.00651406 0.00041324 0)
(-0.00947202 0.000441477 0)
(-0.0123872 0.000435807 0)
(-0.0150266 0.000395728 0)
(-0.0171502 0.000314734 0)
(-0.0185117 0.000187272 0)
(-0.0188851 1.56942e-05 0)
(-0.0181145 -0.000186997 0)
(-0.0161741 -0.000388848 0)
(-0.0132184 -0.000547978 0)
(-0.00960424 -0.00062016 0)
(-0.00586039 -0.00057316 0)
(-0.0025952 -0.000400828 0)
(-0.000343885 -0.000134395 0)
(0.000586222 0.000143811 0)
(0.000320281 0.00030711 0)
(2.37971e-06 9.09859e-05 0)
(-0.00201783 0.00187327 0)
(-0.00641682 0.00366747 0)
(-0.0125495 0.00490691 0)
(-0.0197011 0.00556133 0)
(-0.0272167 0.00570095 0)
(-0.0344924 0.00537605 0)
(-0.0409485 0.00459419 0)
(-0.0460079 0.0033466 0)
(-0.0491151 0.00165304 0)
(-0.0498014 -0.000394581 0)
(-0.0477767 -0.00260595 0)
(-0.0430403 -0.00468789 0)
(-0.035971 -0.00628342 0)
(-0.0273516 -0.00704556 0)
(-0.0183064 -0.00674127 0)
(-0.0101238 -0.00535779 0)
(-0.00396724 -0.00318009 0)
(-0.00052239 -0.000840553 0)
(0.000244881 0.000614976 0)
(-0.00027783 0.00168048 0)
(-0.00439048 0.00643591 0)
(-0.0118376 0.0106171 0)
(-0.0215426 0.0134429 0)
(-0.0324743 0.0148701 0)
(-0.0437426 0.0150163 0)
(-0.0545068 0.0139694 0)
(-0.063953 0.0117532 0)
(-0.0712826 0.00838319 0)
(-0.0757472 0.00395589 0)
(-0.0767305 -0.00126694 0)
(-0.0738621 -0.00680847 0)
(-0.0671426 -0.0119853 0)
(-0.0570506 -0.0159841 0)
(-0.044588 -0.0180194 0)
(-0.031226 -0.0175551 0)
(-0.0187078 -0.0145411 0)
(-0.00869273 -0.00958934 0)
(-0.00231744 -0.00402872 0)
(8.96286e-05 6.81407e-05 0)
(-0.000532281 0.0045488 0)
(-0.006687 0.013627 0)
(-0.0170639 0.0208394 0)
(-0.0300824 0.0255196 0)
(-0.0443972 0.0277407 0)
(-0.0589436 0.0277116 0)
(-0.0727304 0.0255701 0)
(-0.0848016 0.0213644 0)
(-0.0942219 0.0151496 0)
(-0.100112 0.00712453 0)
(-0.101734 -0.0022441 0)
(-0.0986025 -0.0121514 0)
(-0.0906253 -0.0214582 0)
(-0.0782366 -0.0288065 0)
(-0.0624931 -0.0328512 0)
(-0.0450818 -0.0326114 0)
(-0.0281595 -0.0278784 0)
(-0.0139633 -0.0195456 0)
(-0.00428212 -0.00969309 0)
(-3.65307e-05 -0.00145194 0)
(-0.000750732 0.00859805 0)
(-0.00874857 0.0232567 0)
(-0.0217912 0.0340574 0)
(-0.0378045 0.0407657 0)
(-0.0551507 0.0437421 0)
(-0.0726369 0.0433645 0)
(-0.089188 0.0398486 0)
(-0.103779 0.0332733 0)
(-0.115398 0.0237297 0)
(-0.12307 0.011508 0)
(-0.125922 -0.0027375 0)
(-0.123289 -0.0178884 0)
(-0.11486 -0.0323413 0)
(-0.100861 -0.0441312 0)
(-0.0822372 -0.0512114 0)
(-0.0607744 -0.0519355 0)
(-0.0390491 -0.0456888 0)
(-0.0200413 -0.0334753 0)
(-0.00648015 -0.018127 0)
(-0.000142565 -0.0039951 0)
(-0.000930528 0.0136724 0)
(-0.0104903 0.0350363 0)
(-0.0258197 0.0499357 0)
(-0.0444178 0.0588362 0)
(-0.0644034 0.0625575 0)
(-0.0845026 0.0617384 0)
(-0.103615 0.0567097 0)
(-0.120709 0.0475838 0)
(-0.134749 0.0344638 0)
(-0.144688 0.0176828 0)
(-0.149506 -0.0019858 0)
(-0.148289 -0.0231686 0)
(-0.140385 -0.0438476 0)
(-0.125639 -0.0614112 0)
(-0.104677 -0.0729461 0)
(-0.0792155 -0.0758283 0)
(-0.0521956 -0.0686318 0)
(-0.0275018 -0.0521362 0)
(-0.00917947 -0.0298684 0)
(-0.000263178 -0.00771377 0)
(-0.00106577 0.0195793 0)
(-0.0118376 0.0485838 0)
(-0.0289682 0.0680256 0)
(-0.0496267 0.0792859 0)
(-0.0717539 0.0837971 0)
(-0.0940446 0.0825516 0)
(-0.115428 0.0760378 0)
(-0.134925 0.0644011 0)
(-0.151531 0.0477178 0)
(-0.16417 0.0262874 0)
(-0.171675 0.000895298 0)
(-0.17286 -0.026963 0)
(-0.166651 -0.0549439 0)
(-0.152335 -0.0798087 0)
(-0.129982 -0.0976352 0)
(-0.100952 -0.104452 0)
(-0.0683497 -0.0974366 0)
(-0.0370096 -0.0765472 0)
(-0.0127327 -0.0457722 0)
(-0.000442767 -0.0129367 0)
(-0.00114885 0.0260873 0)
(-0.0127188 0.0634289 0)
(-0.0310618 0.0877627 0)
(-0.0531236 0.101539 0)
(-0.076735 0.106929 0)
(-0.100606 0.10537 0)
(-0.123749 0.0975514 0)
(-0.145292 0.0836554 0)
(-0.164333 0.0636887 0)
(-0.179829 0.037827 0)
(-0.190541 0.00673226 0)
(-0.195036 -0.0281567 0)
(-0.191789 -0.064333 0)
(-0.179429 -0.09805 0)
(-0.157213 -0.124331 0)
(-0.125753 -0.13751 0)
(-0.0878763 -0.132635 0)
(-0.049154 -0.107867 0)
(-0.0175295 -0.0670141 0)
(-0.000736536 -0.020197 0)
(-0.00117556 0.0329292 0)
(-0.0130869 0.0790213 0)
(-0.0319676 0.108463 0)
(-0.0546391 0.124858 0)
(-0.0788828 0.131217 0)
(-0.103464 0.129501 0)
(-0.127522 0.120659 0)
(-0.150358 0.104923 0)
(-0.171245 0.0821973 0)
(-0.189279 0.0524523 0)
(-0.203263 0.0160832 0)
(-0.211642 -0.0257183 0)
(-0.212531 -0.0705362 0)
(-0.203889 -0.114371 0)
(-0.183966 -0.151328 0)
(-0.152177 -0.173868 0)
(-0.110387 -0.174142 0)
(-0.0642611 -0.147109 0)
(-0.0239722 -0.0950123 0)
(-0.00122034 -0.0302498 0)
(-0.00115257 0.0398256 0)
(-0.0129584 0.0947625 0)
(-0.0316628 0.129344 0)
(-0.0540388 0.14834 0)
(-0.0778641 0.155677 0)
(-0.101994 0.153925 0)
(-0.125737 0.144355 0)
(-0.148626 0.127283 0)
(-0.170197 0.102511 0)
(-0.189806 0.0697504 0)
(-0.206471 0.0290141 0)
(-0.218707 -0.0189548 0)
(-0.224492 -0.0721154 0)
(-0.221268 -0.126632 0)
(-0.206234 -0.176088 0)
(-0.177229 -0.211218 0)
(-0.134323 -0.220727 0)
(-0.0821217 -0.194669 0)
(-0.0324335 -0.131236 0)
(-0.00200758 -0.0440874 0)
(-0.00110789 0.046534 0)
(-0.0124662 0.110075 0)
(-0.0303249 0.149573 0)
(-0.0514475 0.170939 0)
(-0.0736408 0.179086 0)
(-0.095891 0.177279 0)
(-0.117723 0.167186 0)
(-0.138955 0.149267 0)
(-0.159469 0.123255 0)
(-0.179007 0.0886018 0)
(-0.196983 0.0448897 0)
(-0.212217 -0.00772586 0)
(-0.222892 -0.0680145 0)
(-0.226271 -0.132663 0)
(-0.218693 -0.195428 0)
(-0.196297 -0.245952 0)
(-0.156607 -0.269505 0)
(-0.101611 -0.249653 0)
(-0.0431493 -0.176837 0)
(-0.00327178 -0.0629404 0)
(-0.00110591 0.0529347 0)
(-0.0119264 0.124516 0)
(-0.0284317 0.168365 0)
(-0.0473761 0.191533 0)
(-0.0666269 0.200032 0)
(-0.0853752 0.197912 0)
(-0.103427 0.187315 0)
(-0.120945 0.168916 0)
(-0.138214 0.142441 0)
(-0.155449 0.107134 0)
(-0.172594 0.0621543 0)
(-0.189149 0.00698719 0)
(-0.203736 -0.0580747 0)
(-0.213827 -0.130843 0)
(-0.215539 -0.206078 0)
(-0.203581 -0.273458 0)
(-0.172567 -0.315701 0)
(-0.120279 -0.309133 0)
(-0.0559915 -0.232032 0)
(-0.00526764 -0.0882264 0)
(-0.00127371 0.0591643 0)
(-0.0119276 0.137929 0)
(-0.0268615 0.18509 0)
(-0.0428146 0.209011 0)
(-0.057777 0.217001 0)
(-0.0712947 0.213996 0)
(-0.083565 0.202674 0)
(-0.0951604 0.183974 0)
(-0.106811 0.157685 0)
(-0.119241 0.122927 0)
(-0.133012 0.0785194 0)
(-0.148323 0.0233163 0)
(-0.164646 -0.0432946 0)
(-0.180267 -0.120716 0)
(-0.191689 -0.205521 0)
(-0.193024 -0.288913 0)
(-0.176329 -0.352961 0)
(-0.134117 -0.367624 0)
(-0.0700811 -0.295233 0)
(-0.00832736 -0.121382 0)
(-0.00184961 0.0658224 0)
(-0.0134578 0.150626 0)
(-0.0269705 0.199365 0)
(-0.0392286 0.222309 0)
(-0.048502 0.228428 0)
(-0.0549767 0.223633 0)
(-0.059421 0.211132 0)
(-0.0629004 0.192127 0)
(-0.0666002 0.166503 0)
(-0.0717275 0.133342 0)
(-0.0794175 0.0912613 0)
(-0.0905975 0.0386656 0)
(-0.105709 -0.0259476 0)
(-0.124238 -0.103483 0)
(-0.143909 -0.192902 0)
(-0.159453 -0.288465 0)
(-0.161628 -0.374332 0)
(-0.137664 -0.417157 0)
(-0.0832645 -0.362086 0)
(-0.0127832 -0.163496 0)
(-0.00328653 0.0743329 0)
(-0.0180827 0.163586 0)
(-0.0305595 0.211083 0)
(-0.0382765 0.230372 0)
(-0.040162 0.232671 0)
(-0.0375359 0.224875 0)
(-0.0319959 0.21059 0)
(-0.0251977 0.191169 0)
(-0.0187692 0.166549 0)
(-0.0143165 0.135813 0)
(-0.01343 0.0975021 0)
(-0.0176443 0.0497972 0)
(-0.0283068 -0.00935213 0)
(-0.0462295 -0.0820396 0)
(-0.0709735 -0.169596 0)
(-0.0992359 -0.270382 0)
(-0.122588 -0.373685 0)
(-0.124373 -0.448105 0)
(-0.0915502 -0.424659 0)
(-0.0187138 -0.214586 0)
(-0.00636396 0.0873957 0)
(-0.0280123 0.178258 0)
(-0.0392816 0.219869 0)
(-0.0405779 0.231591 0)
(-0.0323252 0.227563 0)
(-0.0177611 0.215418 0)
(0.000375376 0.198796 0)
(0.0197638 0.178928 0)
(0.03839 0.15567 0)
(0.0543764 0.128075 0)
(0.06585 0.0947008 0)
(0.0708762 0.0537247 0)
(0.0674214 0.00295869 0)
(0.0535276 -0.060272 0)
(0.0276641 -0.138977 0)
(-0.00977113 -0.235631 0)
(-0.0537662 -0.347024 0)
(-0.086616 -0.450324 0)
(-0.0885201 -0.470852 0)
(-0.0253076 -0.272265 0)
(-0.0125247 0.110609 0)
(-0.0452198 0.196708 0)
(-0.0514519 0.224539 0)
(-0.0408732 0.22312 0)
(-0.0170342 0.209832 0)
(0.0139335 0.192196 0)
(0.0480206 0.173108 0)
(0.0823854 0.153192 0)
(0.114853 0.13197 0)
(0.143516 0.108393 0)
(0.166462 0.0810822 0)
(0.18162 0.0483822 0)
(0.186571 0.00832016 0)
(0.178643 -0.0416953 0)
(0.15476 -0.105195 0)
(0.112463 -0.187488 0)
(0.0512041 -0.293356 0)
(-0.014315 -0.414488 0)
(-0.0643336 -0.485122 0)
(-0.0295905 -0.330461 0)
(-0.0216115 0.148418 0)
(-0.0652288 0.213122 0)
(-0.0493934 0.215069 0)
(-0.0130312 0.19509 0)
(0.0358887 0.171614 0)
(0.0887362 0.149603 0)
(0.141277 0.129846 0)
(0.191067 0.111755 0)
(0.236471 0.094308 0)
(0.276073 0.0763375 0)
(0.308328 0.0566067 0)
(0.331398 0.0337854 0)
(0.342844 0.00634668 0)
(0.339858 -0.0276628 0)
(0.318525 -0.071237 0)
(0.274661 -0.130266 0)
(0.202175 -0.214989 0)
(0.107943 -0.334974 0)
(-0.00320464 -0.451463 0)
(-0.0232652 -0.378735 0)
(-0.0274723 0.229336 0)
(-0.0364933 0.22312 0)
(0.0465603 0.176951 0)
(0.127046 0.138742 0)
(0.205601 0.109501 0)
(0.277489 0.0878765 0)
(0.341791 0.0715786 0)
(0.398484 0.0585822 0)
(0.447621 0.0473869 0)
(0.48896 0.0368461 0)
(0.521799 0.0260103 0)
(0.544927 0.0140228 0)
(0.5564 5.08287e-06 0)
(0.553891 -0.0170372 0)
(0.533366 -0.0390883 0)
(0.490589 -0.0704559 0)
(0.415322 -0.120934 0)
(0.304905 -0.213375 0)
(0.125881 -0.348318 0)
(0.0236681 -0.37879 0)
(0.21444 0.135797 0)
(0.285137 0.0984496 0)
(0.444655 0.0569152 0)
(0.547913 0.036584 0)
(0.621662 0.0241692 0)
(0.678249 0.0163208 0)
(0.722824 0.011336 0)
(0.758414 0.00800683 0)
(0.786855 0.00557321 0)
(0.809038 0.00357109 0)
(0.82515 0.00169391 0)
(0.834864 -0.000271545 0)
(0.837314 -0.00250681 0)
(0.831191 -0.00505125 0)
(0.813548 -0.00850249 0)
(0.781941 -0.0135056 0)
(0.72408 -0.0231768 0)
(0.635276 -0.0406015 0)
(0.43131 -0.0912947 0)
(0.270899 -0.153523 0)
)
;

boundaryField
{
    movingWall
    {
        type            fixedValue;
        value           uniform (1 0 0);
    }
    fixedWalls
    {
        type            fixedValue;
        value           uniform (0 0 0);
    }
    frontAndBack
    {
        type            empty;
    }
}


// ************************************************************************* //
