/*--------------------------------*- C++ -*----------------------------------*\
  =========                 |
  \\      /  F ield         | OpenFOAM: The Open Source CFD Toolbox
   \\    /   O peration     | Website:  https://openfoam.org
    \\  /    A nd           | Version:  13
     \\/     M anipulation  |
\*---------------------------------------------------------------------------*/
FoamFile
{
    format      ascii;
    class       volScalarField;
    location    "36";
    object      p;
}
// * * * * * * * * * * * * * * * * * * * * * * * * * * * * * * * * * * * * * //

dimensions      [0 2 -2 0 0 0 0];

internalField   nonuniform List<scalar> 
400
(
1.16606e-07
-0.000572409
-0.00121601
-0.00171888
-0.00195921
-0.0018847
-0.00147049
-0.000705538
0.00040129
0.00180595
0.00341468
0.005075
0.00659103
0.00775109
0.00837979
0.00839563
0.00785534
0.0069689
0.00604801
0.00549433
0.000569961
-2.03127e-05
-0.000569696
-0.000957053
-0.00113203
-0.00106199
-0.000725994
-0.000109259
0.000788758
0.00193944
0.00326978
0.00466011
0.00594069
0.0069298
0.00747424
0.00750179
0.00705922
0.00631884
0.00554326
0.00497264
0.00124571
0.000492982
-8.67302e-05
-0.000441382
-0.000606166
-0.000576307
-0.000337296
0.000132572
0.000849678
0.00180688
0.00295484
0.00419178
0.00536443
0.00629382
0.00681925
0.00685291
0.00642076
0.00566819
0.00480894
0.00403719
0.0017406
0.000763703
7.36604e-05
-0.000321954
-0.000537137
-0.000592752
-0.000478249
-0.000160176
0.000400014
0.00122208
0.00228168
0.00349286
0.00470171
0.00570974
0.00631941
0.00639817
0.00593353
0.00505058
0.00394842
0.00284445
0.00179548
0.000595741
-0.00022769
-0.000704826
-0.00101815
-0.00120724
-0.00125937
-0.00112301
-0.000730504
-2.78271e-05
0.00099176
0.00226361
0.00363008
0.00486127
0.0056987
0.00593235
0.00548043
0.00443552
0.00299996
0.00146212
0.00119472
-0.000203007
-0.00116327
-0.00175269
-0.0022114
-0.00259066
-0.00286926
-0.0029712
-0.00279192
-0.00223291
-0.00124404
0.00015055
0.00179288
0.00341987
0.00469026
0.00527477
0.00497194
0.00380572
0.00197905
-0.000104012
-0.000241597
-0.00180007
-0.00289222
-0.00362219
-0.00427768
-0.00491661
-0.00550505
-0.00593751
-0.00606453
-0.00572842
-0.00480688
-0.00328514
-0.0012703
0.000946734
0.00292633
0.0041699
0.0042793
0.00313559
0.000902654
-0.00185621
-0.0026519
-0.00432632
-0.00554121
-0.00643924
-0.00734707
-0.00832769
-0.00933384
-0.0102287
-0.0108112
-0.0108504
-0.0101335
-0.00853895
-0.00610702
-0.00311221
-8.63832e-05
0.00225508
0.0032127
0.00239533
-0.000177324
-0.00375291
-0.0061213
-0.00786166
-0.00918469
-0.0102717
-0.0114829
-0.0128893
-0.0144344
-0.0159528
-0.0171896
-0.0178276
-0.0175353
-0.0160427
-0.013253
-0.00935746
-0.00493599
-0.00094137
0.00150812
0.00155462
-0.00113711
-0.00564676
-0.0106714
-0.0124236
-0.0138274
-0.015102
-0.0166421
-0.0185357
-0.0207271
-0.0230304
-0.0251404
-0.0266491
-0.027084
-0.0259775
-0.0230342
-0.0182541
-0.0121677
-0.0059221
-0.00114225
0.000603061
-0.00173135
-0.00719511
-0.0162604
-0.0179653
-0.0193957
-0.0208061
-0.0226414
-0.0250233
-0.0279113
-0.0311114
-0.0342774
-0.0369138
-0.0383953
-0.0380067
-0.0352841
-0.0298335
-0.0220051
-0.0130064
-0.00495978
-0.000375537
-0.001516
-0.00772064
-0.0228029
-0.02439
-0.0257426
-0.0271484
-0.0291434
-0.0319106
-0.0354423
-0.0395493
-0.0438548
-0.0477846
-0.0505799
-0.0513771
-0.0491634
-0.0433939
-0.0339888
-0.0219777
-0.0098059
-0.00102474
0.000280071
-0.00599997
-0.0302225
-0.0315862
-0.0326695
-0.033792
-0.035668
-0.0385798
-0.0425689
-0.0474549
-0.0528342
-0.0580626
-0.062251
-0.0643105
-0.0630222
-0.057332
-0.0466928
-0.0317049
-0.0148011
-0.000417051
0.00496563
2.28298e-05
-0.0385599
-0.0394894
-0.0399612
-0.0403269
-0.0416349
-0.0443095
-0.0484455
-0.0538593
-0.0601058
-0.0664654
-0.0719294
-0.0752215
-0.0748703
-0.0694213
-0.057807
-0.0400021
-0.0180232
0.00327957
0.0146986
0.0135557
-0.0481747
-0.0481569
-0.0474034
-0.0462841
-0.046412
-0.0483712
-0.0522814
-0.0579131
-0.0647393
-0.0719353
-0.0783606
-0.0825612
-0.0828322
-0.0773738
-0.0646452
-0.0439369
-0.0165434
0.0130189
0.0329311
0.0392808
-0.0602349
-0.0579576
-0.0548671
-0.0512134
-0.0494271
-0.0501784
-0.0535203
-0.0590936
-0.06622
-0.0739187
-0.0808794
-0.0854534
-0.0857069
-0.0795198
-0.0649419
-0.0406112
-0.00697883
0.0328168
0.0647938
0.0836768
-0.0774814
-0.0694732
-0.0620874
-0.0545494
-0.0501389
-0.049325
-0.0519044
-0.057261
-0.0644862
-0.0723849
-0.0794399
-0.0837783
-0.0832184
-0.0752829
-0.0576214
-0.0282112
0.0133525
0.066661
0.115752
0.154807
-0.108926
-0.0850401
-0.0697733
-0.0563915
-0.048541
-0.0458811
-0.0476242
-0.052715
-0.0599172
-0.067777
-0.0745523
-0.07814
-0.0761044
-0.0655426
-0.0436432
-0.00744505
0.0447431
0.114933
0.188078
0.263281
-0.168693
-0.100746
-0.0730931
-0.0522881
-0.0413102
-0.0376997
-0.039442
-0.0448654
-0.0524158
-0.0604469
-0.0670739
-0.0700478
-0.0666875
-0.0537884
-0.0278898
0.0154099
0.0800716
0.17276
0.285855
0.445985
-0.402754
-0.139031
-0.0734592
-0.0447302
-0.0305718
-0.0266175
-0.0290856
-0.0353735
-0.0436541
-0.0522074
-0.059124
-0.0621456
-0.0586175
-0.045214
-0.0174508
0.0310787
0.108496
0.236657
0.427487
0.79368
)
;

boundaryField
{
    movingWall
    {
        type            zeroGradient;
    }
    fixedWalls
    {
        type            zeroGradient;
    }
    frontAndBack
    {
        type            empty;
    }
}


// ************************************************************************* //
