/*--------------------------------*- C++ -*----------------------------------*\
  =========                 |
  \\      /  F ield         | OpenFOAM: The Open Source CFD Toolbox
   \\    /   O peration     | Website:  https://openfoam.org
    \\  /    A nd           | Version:  13
     \\/     M anipulation  |
\*---------------------------------------------------------------------------*/
FoamFile
{
    format      ascii;
    class       volScalarField;
    location    "7";
    object      p;
}
// * * * * * * * * * * * * * * * * * * * * * * * * * * * * * * * * * * * * * //

dimensions      [0 2 -2 0 0 0 0];

internalField   nonuniform List<scalar> 
400
(
-3.22308e-08
-0.00052366
-0.00108857
-0.00150786
-0.00166795
-0.00152274
-0.0010531
-0.000253601
0.000863075
0.00225334
0.00382971
0.0054528
0.00694292
0.00810465
0.00877285
0.00886528
0.00842538
0.0076467
0.00678928
0.00626879
0.000519732
-1.90534e-05
-0.000500855
-0.000815311
-0.000915324
-0.00077225
-0.000370467
0.000298393
0.00122939
0.00239183
0.00371605
0.00509156
0.0063625
0.00736145
0.00794476
0.00804038
0.00768422
0.00703087
0.00631587
0.00577494
0.00111308
0.000430619
-7.8268e-05
-0.000361651
-0.00044883
-0.000336148
-1.43689e-05
0.000530036
0.00130509
0.00229823
0.00346031
0.00469678
0.00586699
0.00680688
0.00736705
0.00746218
0.00710992
0.00643964
0.00564453
0.00491103
0.00153101
0.000645756
3.71653e-05
-0.000280191
-0.000405559
-0.000358856
-0.000135791
0.000285935
0.000932503
0.00181416
0.00290333
0.00412004
0.00532309
0.00633145
0.00696293
0.00709204
0.00670184
0.00590321
0.00487689
0.00383006
0.00154474
0.000455494
-0.000273843
-0.000659469
-0.000861673
-0.000918477
-0.000825773
-0.000547403
-3.3174e-05
0.000756332
0.00182052
0.00309978
0.0044482
0.00565679
0.00648849
0.00674783
0.00635544
0.00539341
0.00404682
0.00258821
0.00096677
-0.000308157
-0.00116223
-0.00164162
-0.00195917
-0.00216553
-0.00225179
-0.0021626
-0.00181695
-0.00113662
-8.13587e-05
0.00131687
0.00292033
0.00448738
0.00570526
0.00626988
0.00599343
0.00489686
0.0031677
0.00118631
-0.000362609
-0.00179498
-0.00277097
-0.00336818
-0.00384485
-0.00426068
-0.0045987
-0.00478012
-0.0046857
-0.00418542
-0.00317682
-0.00164686
0.000304367
0.00241164
0.00427152
0.00542379
0.00550017
0.00439217
0.00225384
-0.000384319
-0.00257331
-0.00412862
-0.00522078
-0.0059609
-0.00664718
-0.00734778
-0.00803761
-0.00861286
-0.00890987
-0.00873271
-0.0078953
-0.00628775
-0.00394418
-0.00111557
0.00170765
0.00386145
0.0046962
0.00385188
0.00135144
-0.00209276
-0.00575631
-0.00739532
-0.00859411
-0.0094989
-0.0104453
-0.0115135
-0.0126746
-0.0138026
-0.0146869
-0.015053
-0.0146024
-0.013085
-0.0104022
-0.00672543
-0.00259194
0.00110519
0.0033167
0.00324214
0.000573091
-0.00380966
-0.0099543
-0.0116335
-0.012919
-0.0139928
-0.0152314
-0.0167358
-0.0184829
-0.0203326
-0.0220309
-0.0232183
-0.0234609
-0.0223208
-0.0194952
-0.0149729
-0.00924326
-0.00339463
0.00102716
0.00253541
0.000144416
-0.00522009
-0.0151596
-0.0168295
-0.0181581
-0.0193618
-0.020874
-0.0228325
-0.0252341
-0.0279374
-0.0306542
-0.0329431
-0.0342241
-0.033837
-0.0312144
-0.026039
-0.0186031
-0.0100615
-0.0024632
0.00177372
0.000477826
-0.00568473
-0.0213297
-0.0229279
-0.0242089
-0.0254217
-0.0270955
-0.0294298
-0.0324591
-0.0360536
-0.0399018
-0.0434912
-0.0461031
-0.0468626
-0.044844
-0.0393791
-0.0303766
-0.0188288
-0.00713157
0.00123885
0.00229812
-0.00402504
-0.0284338
-0.0298596
-0.0309177
-0.0318863
-0.0334715
-0.0359688
-0.0394657
-0.0438511
-0.0487948
-0.0537229
-0.057791
-0.0599124
-0.0588539
-0.0535057
-0.0432709
-0.0287101
-0.012232
0.00175972
0.0068553
0.00177391
-0.0365554
-0.0375989
-0.0381084
-0.0383867
-0.0394611
-0.0417611
-0.0454308
-0.0503709
-0.056216
-0.0623294
-0.0677508
-0.071206
-0.0711834
-0.066157
-0.0549786
-0.0375668
-0.0159237
0.00508521
0.0162516
0.0149015
-0.0460925
-0.0462366
-0.0455982
-0.0444812
-0.0444499
-0.0460805
-0.0495446
-0.0547302
-0.0611766
-0.0681723
-0.0746276
-0.0790906
-0.079805
-0.0748807
-0.0626656
-0.042362
-0.0152348
0.014159
0.0339192
0.0400626
-0.0582455
-0.0561715
-0.0532813
-0.0497303
-0.0478568
-0.0483083
-0.0511802
-0.0563583
-0.0630762
-0.070589
-0.0776251
-0.0825365
-0.0833344
-0.0777899
-0.0638305
-0.039968
-0.00660469
0.0331109
0.0650523
0.0838085
-0.0757755
-0.0680035
-0.0609015
-0.0535558
-0.0491035
-0.0479906
-0.0500962
-0.0549552
-0.0617658
-0.0694684
-0.0766072
-0.0813147
-0.0813516
-0.0741399
-0.0571856
-0.0283362
0.0128806
0.0661844
0.115289
0.154313
-0.107654
-0.0840201
-0.0691049
-0.0559645
-0.0480717
-0.0450786
-0.0463008
-0.0508349
-0.0575842
-0.0652157
-0.0720525
-0.0759965
-0.0745518
-0.0647343
-0.0435803
-0.00799575
0.0438092
0.113895
0.187094
0.262293
-0.167825
-0.100086
-0.0728339
-0.0522811
-0.0412548
-0.0372922
-0.0384902
-0.0433295
-0.0503975
-0.0581636
-0.0648094
-0.0680959
-0.0653178
-0.0530775
-0.0278949
0.0147881
0.0790354
0.171548
0.28463
0.444828
-0.401906
-0.138448
-0.0733063
-0.0448702
-0.030692
-0.0264097
-0.0283506
-0.0340574
-0.041841
-0.0500937
-0.0569716
-0.0602266
-0.057156
-0.044423
-0.0173375
0.0305999
0.107596
0.235552
0.426341
0.792574
)
;

boundaryField
{
    movingWall
    {
        type            zeroGradient;
    }
    fixedWalls
    {
        type            zeroGradient;
    }
    frontAndBack
    {
        type            empty;
    }
}


// ************************************************************************* //
