/*--------------------------------*- C++ -*----------------------------------*\
  =========                 |
  \\      /  F ield         | OpenFOAM: The Open Source CFD Toolbox
   \\    /   O peration     | Website:  https://openfoam.org
    \\  /    A nd           | Version:  13
     \\/     M anipulation  |
\*---------------------------------------------------------------------------*/
FoamFile
{
    format      ascii;
    class       surfaceScalarField;
    location    "7";
    object      phi;
}
// * * * * * * * * * * * * * * * * * * * * * * * * * * * * * * * * * * * * * //

dimensions      [0 3 -1 0 0 0 0];

internalField   nonuniform List<scalar> 
760
(
2.63694e-06
-2.63653e-06
-3.88598e-05
4.14966e-05
-0.000125148
8.62885e-05
-0.000241714
0.000116566
-0.000374044
0.00013233
-0.000509829
0.000135785
-0.000638237
0.000128408
-0.000748681
0.000110444
-0.000830231
8.15504e-05
-0.00087214
4.19094e-05
-0.000865427
-6.7138e-06
-0.000805466
-5.99607e-05
-0.000694477
-0.000110989
-0.000543488
-0.000150989
-0.000372384
-0.000171104
-0.000207364
-0.00016502
-7.56802e-05
-0.000131684
1.7337e-06
-7.74139e-05
2.0427e-05
-1.86934e-05
2.0427e-05
-4.45069e-05
4.18704e-05
-0.000195965
0.000192955
-0.000439535
0.000329858
-0.000745506
0.000422537
-0.001083
0.000469822
-0.00142349
0.000476274
-0.00174037
0.00044529
-0.00200765
0.00037772
-0.00219968
0.000273582
-0.00229283
0.000135059
-0.00226909
-3.04466e-05
-0.00212037
-0.00020868
-0.00185387
-0.000377499
-0.00149472
-0.00051013
-0.00108591
-0.000579916
-0.000683027
-0.000567904
-0.000343743
-0.000470968
-0.000113106
-0.00030805
-8.60074e-06
-0.000123199
1.18263e-05
-0.000102516
0.000144386
-0.000371952
0.000462391
-0.000765336
0.000723242
-0.00123788
0.000895079
-0.00174715
0.000979091
-0.00225392
0.000983044
-0.00272098
0.000912352
-0.0031119
0.000768644
-0.00339129
0.000552965
-0.00352717
0.000270941
-0.00349549
-6.21264e-05
-0.00328564
-0.000418533
-0.0029064
-0.000756732
-0.00238998
-0.00102655
-0.00179239
-0.0011775
-0.00118807
-0.00117222
-0.000657259
-0.00100178
-0.000267247
-0.000698063
-5.25911e-05
-0.000337855
-4.0765e-05
-0.000157578
0.000301964
-0.0005407
0.000845513
-0.00107537
0.00125792
-0.00170005
0.00151975
-0.00236222
0.00164127
-0.00301524
0.00163606
-0.00361518
0.00151229
-0.00411896
0.00127242
-0.00448449
0.000918493
-0.00467319
0.000459638
-0.00465469
-8.06267e-05
-0.0044128
-0.00066042
-0.00395269
-0.00121684
-0.00330673
-0.00167252
-0.00253752
-0.00194672
-0.00173469
-0.00197505
-0.00100228
-0.00173419
-0.000436396
-0.00126395
-9.91301e-05
-0.000675121
-0.000139895
-0.000207037
0.000509001
-0.000694218
0.00133269
-0.00135854
0.00192224
-0.00212217
0.00228338
-0.00292389
0.00244299
-0.00371205
0.00242422
-0.00443901
0.00223925
-0.00505786
0.00189127
-0.00552176
0.0013824
-0.00578584
0.000723711
-0.0058116
-5.48669e-05
-0.00557276
-0.00089926
-0.00506436
-0.00172524
-0.00431136
-0.00242551
-0.00337662
-0.00288146
-0.00236275
-0.00298893
-0.00140201
-0.00269493
-0.00063027
-0.00203569
-0.000150166
-0.00115522
-0.000290062
-0.000249785
0.000758786
-0.00082811
0.00191102
-0.00160703
0.00270117
-0.00249457
0.00317091
-0.00342271
0.00337113
-0.0043371
0.00333862
-0.00518899
0.00309114
-0.00593012
0.0026324
-0.00651057
0.00196285
-0.00687935
0.00109249
-0.00698772
5.35061e-05
-0.00679518
-0.00109181
-0.00627939
-0.00224103
-0.00544907
-0.00325583
-0.00435861
-0.00397191
-0.00311869
-0.00422885
-0.00189303
-0.00392059
-0.000870559
-0.00305816
-0.000213035
-0.00181275
-0.000503096
-0.000284605
0.00104339
-0.000937969
0.00256438
-0.00181222
0.00357542
-0.00280422
0.00416291
-0.00384145
0.00440835
-0.00486917
0.00436634
-0.00584009
0.00406206
-0.0067072
0.00349951
-0.00741971
0.00267535
-0.00792172
0.00159451
-0.00815347
0.000285261
-0.00805761
-0.00118767
-0.00758795
-0.00271068
-0.0067271
-0.00411668
-0.00550852
-0.00519049
-0.00403977
-0.00569761
-0.00251321
-0.00544714
-0.00118337
-0.004388
-0.000297218
-0.0026989
-0.000800314
-0.000310011
0.0013534
-0.00101881
0.00327318
-0.00196398
0.00452059
-0.00303435
0.00523327
-0.00415513
0.00552913
-0.00527348
0.00548469
-0.0063462
0.00513478
-0.00733056
0.00448387
-0.00817812
0.00352292
-0.00883112
0.0022475
-0.00922147
0.000675617
-0.00927425
-0.00113489
-0.00891636
-0.00306857
-0.00809499
-0.00493806
-0.00680686
-0.00647861
-0.0051366
-0.00736786
-0.00329067
-0.00729307
-0.00159461
-0.00608407
-0.000413442
-0.00388006
-0.00121376
-0.000324824
0.00167823
-0.00106631
0.00401467
-0.00205258
0.00550686
-0.003167
0.00634769
-0.00433448
0.00669661
-0.00550609
0.00665631
-0.00664538
0.00627406
-0.00771738
0.00555587
-0.0086805
0.00448604
-0.00948048
0.00304749
-0.0100466
0.00124174
-0.0102913
-0.000890159
-0.0101161
-0.00324385
-0.009427
-0.00562711
-0.00816788
-0.00773774
-0.00637253
-0.00916321
-0.0042302
-0.0094354
-0.00212526
-0.00818901
-0.000573523
-0.0054318
-0.00178728
-0.000329257
0.00200748
-0.0010794
0.00476482
-0.00207258
0.00650003
-0.00318834
0.00746346
-0.00435275
0.00786102
-0.00552267
0.00782623
-0.00667092
0.00742231
-0.00777407
0.00665902
-0.00880272
0.0055147
-0.00971349
0.00395826
-0.0104422
0.00197042
-0.0108987
-0.000433653
-0.0109675
-0.00317499
-0.0105159
-0.00607874
-0.00942332
-0.00883033
-0.00764199
-0.0109445
-0.00529514
-0.0117823
-0.00278368
-0.0107005
-0.000790053
-0.00742543
-0.00257733
-0.000326489
0.00233397
-0.00106382
0.00550215
-0.00202826
0.00746447
-0.00309581
0.00853101
-0.00419515
0.00896035
-0.00529092
0.008922
-0.00636784
0.00849923
-0.00741763
0.00770881
-0.00842853
0.00652559
-0.00937601
0.00490574
-0.0102137
0.00280811
-0.010863
0.00021565
-0.0112079
-0.00283013
-0.0110889
-0.00619768
-0.0103225
-0.00959673
-0.00875554
-0.0125115
-0.00638645
-0.0141513
-0.0035528
-0.0135341
-0.00107486
-0.00990337
-0.00365219
-0.000324817
0.00265879
-0.00103653
0.00621386
-0.00193961
0.00836754
-0.00290566
0.00949707
-0.00386845
0.00992315
-0.00480361
0.00985716
-0.00571073
0.00940635
-0.00659996
0.00859804
-0.00748148
0.00740711
-0.00835639
0.00578065
-0.00920637
0.00365809
-0.00998178
0.000991062
-0.0105837
-0.00222818
-0.0108524
-0.00592901
-0.0105597
-0.00988938
-0.00944359
-0.0136277
-0.00732655
-0.0162684
-0.00437199
-0.0164887
-0.00143474
-0.0128406
-0.00508692
-0.000340785
0.00299957
-0.00103076
0.00690383
-0.0018477
0.00918449
-0.00265816
0.0103075
-0.00340683
0.0106718
-0.0040862
0.0105365
-0.00471504
0.0100352
-0.00532471
0.00920772
-0.00594971
0.00803211
-0.00662015
0.00645109
-0.00735251
0.00439045
-0.00813667
0.00177522
-0.00891499
-0.00144985
-0.0095572
-0.0052868
-0.00982943
-0.00961716
-0.00938793
-0.0140692
-0.0078593
-0.017797
-0.00511768
-0.0192303
-0.00186262
-0.0160957
-0.00694954
-0.000404064
0.00340364
-0.00110127
0.00760104
-0.00181686
0.00990008
-0.00241593
0.0109066
-0.00286699
0.0111229
-0.00319014
0.0108597
-0.00342955
0.0102746
-0.00364051
0.00941868
-0.00388157
0.00827317
-0.00421102
0.00678054
-0.00468028
0.00485971
-0.00532372
0.00241866
-0.00613942
-0.000634149
-0.00705781
-0.00436841
-0.0078908
-0.00878417
-0.0082749
-0.0136851
-0.00767261
-0.0183993
-0.00559039
-0.0213125
-0.00232268
-0.0193634
-0.00927222
-0.000565703
0.00396934
-0.00132743
0.00836276
-0.00192608
0.0104987
-0.00224337
0.0112239
-0.00229756
0.0111771
-0.00215393
0.0107161
-0.00189042
0.0100111
-0.00158919
0.00911744
-0.00132973
0.00801372
-0.00119391
0.00664472
-0.0012622
0.00492799
-0.00160917
0.00276563
-0.00229144
4.81242e-05
-0.00331966
-0.00334019
-0.00460198
-0.00750184
-0.00584194
-0.0124451
-0.00643232
-0.0178089
-0.00551301
-0.0222318
-0.00272879
-0.0221476
-0.012001
-0.000905828
0.00487517
-0.00179836
0.00925529
-0.00222141
0.0109218
-0.00213001
0.0111325
-0.00164033
0.0106874
-0.000888825
0.00996454
1.53514e-06
0.00912072
0.00092855
0.00819043
0.00179006
0.00715221
0.00249051
0.00594427
0.00293066
0.00448784
0.00300683
0.00268946
0.00261356
0.000441392
0.00166159
-0.00238822
0.000117909
-0.00595816
-0.00187557
-0.0104517
-0.00379334
-0.0158912
-0.00452344
-0.0215017
-0.00291338
-0.0237577
-0.0149144
-0.00152395
0.00639912
-0.00250707
0.0102384
-0.00251373
0.0109284
-0.00172578
0.0103445
-0.000435859
0.00939748
0.00112395
0.00840474
0.00278875
0.00745592
0.00443472
0.00654445
0.00596124
0.00562569
0.00726999
0.00463552
0.00825668
0.00350115
0.00880419
0.00214195
0.00877724
0.000468343
0.00802898
-0.00163996
0.00641153
-0.00434071
0.00386653
-0.00790666
0.000675564
-0.0127002
-0.00210826
-0.0187179
-0.00254026
-0.0233257
-0.0174546
-0.00235187
0.00875098
-0.00286976
0.0107563
-0.001698
0.00975667
0.000386411
0.00826013
0.00285811
0.00692578
0.00542785
0.00583499
0.0079364
0.00494737
0.0102866
0.00419425
0.0124044
0.00350793
0.0142148
0.00282514
0.0156293
0.00208655
0.0165375
0.0012338
0.0167979
0.000207909
0.0162413
-0.00108332
0.014649
-0.00274838
0.0117832
-0.00504092
0.00753397
-0.00845093
0.00253598
-0.0137199
-0.000941854
-0.0198478
-0.0183965
-0.00199408
0.0107451
0.000360223
0.00840201
0.00429311
0.00582378
0.0082598
0.00429344
0.0119597
0.00322589
0.0153043
0.00249039
0.0182796
0.00197204
0.0208924
0.00158152
0.0231409
0.00125938
0.0250023
0.000963748
0.0264266
0.000662259
0.0273313
0.000329117
0.0275975
-5.82789e-05
0.0270731
-0.000558983
0.025527
-0.00120227
0.0226257
-0.00213958
0.0179013
-0.0037266
0.0109161
-0.00673469
0.00300932
-0.011941
-0.0153872
0.0107451
0.0191471
0.0249709
0.0292643
0.0324902
0.0349806
0.0369526
0.0385341
0.0397935
0.0407573
0.0414195
0.0417486
0.0416904
0.0411314
0.0399291
0.0377895
0.0340629
0.0273282
0.0153872
)
;

boundaryField
{
    movingWall
    {
        type            calculated;
        value           uniform 0;
    }
    fixedWalls
    {
        type            calculated;
        value           uniform 0;
    }
    frontAndBack
    {
        type            empty;
    }
}


// ************************************************************************* //
