/*--------------------------------*- C++ -*----------------------------------*\
  =========                 |
  \\      /  F ield         | OpenFOAM: The Open Source CFD Toolbox
   \\    /   O peration     | Website:  https://openfoam.org
    \\  /    A nd           | Version:  13
     \\/     M anipulation  |
\*---------------------------------------------------------------------------*/
FoamFile
{
    format      ascii;
    class       surfaceScalarField;
    location    "7";
    object      phi_0;
}
// * * * * * * * * * * * * * * * * * * * * * * * * * * * * * * * * * * * * * //

dimensions      [0 3 -1 0 0 0 0];

internalField   nonuniform List<scalar> 
760
(
2.62891e-06
-2.62904e-06
-3.88599e-05
4.14888e-05
-0.000125124
8.62637e-05
-0.000241652
0.000116528
-0.000373936
0.000132284
-0.000509673
0.000135736
-0.000638034
0.000128361
-0.000748438
0.000110404
-0.000829961
8.15233e-05
-0.000871861
4.19e-05
-0.000865159
-6.70207e-06
-0.000805232
-5.99275e-05
-0.000694293
-0.000110938
-0.000543366
-0.000150927
-0.000372323
-0.000171043
-0.000207353
-0.00016497
-7.56994e-05
-0.000131654
1.70554e-06
-7.74049e-05
2.04124e-05
-1.87068e-05
2.04123e-05
-4.44965e-05
4.18675e-05
-0.000195907
0.000192899
-0.000439392
0.000329748
-0.000745251
0.000422388
-0.00108262
0.00046965
-0.00142298
0.000476097
-0.00173974
0.000445125
-0.00200692
0.000377586
-0.0021989
0.000273496
-0.00229203
0.000135036
-0.00226834
-3.03974e-05
-0.0021197
-0.00020856
-0.00185332
-0.000377321
-0.00149433
-0.00050992
-0.00108567
-0.000579706
-0.00068291
-0.000567726
-0.000343714
-0.000470849
-0.000113118
-0.000308001
-8.61409e-06
-0.00012321
1.17982e-05
-0.000102479
0.000144346
-0.000371813
0.000462234
-0.000765045
0.00072298
-0.0012374
0.000894745
-0.00174647
0.000978722
-0.00225305
0.000982674
-0.00271994
0.000912016
-0.00311073
0.000768377
-0.00339004
0.000552802
-0.00352591
0.000270908
-0.00349429
-6.20169e-05
-0.00328456
-0.000418287
-0.00290551
-0.000756375
-0.0023893
-0.00102613
-0.00179193
-0.00117708
-0.00118781
-0.00117185
-0.000657142
-0.00100152
-0.000267217
-0.000697926
-5.25936e-05
-0.000337834
-4.07954e-05
-0.000157513
0.000301859
-0.000540477
0.000845198
-0.00107493
0.00125744
-0.00169936
0.00151917
-0.00236128
0.00164064
-0.00301405
0.00163545
-0.00361378
0.00151175
-0.0041174
0.001272
-0.00448284
0.000918241
-0.00467153
0.000459596
-0.0046531
-8.04421e-05
-0.00441137
-0.000660021
-0.00395148
-0.00121626
-0.00330577
-0.00167184
-0.00253683
-0.00194602
-0.00173426
-0.00197442
-0.00100206
-0.00173372
-0.000436315
-0.00126367
-9.91179e-05
-0.000675031
-0.000139913
-0.000206947
0.000508807
-0.000693925
0.00133218
-0.00135798
0.00192149
-0.0021213
0.00228249
-0.00292272
0.00244206
-0.0037106
0.00242333
-0.00443732
0.00223847
-0.005056
0.00189067
-0.00551981
0.00138205
-0.00578387
0.000723659
-0.00580971
-5.4604e-05
-0.00557103
-0.0008987
-0.00506286
-0.00172443
-0.00431015
-0.00242455
-0.00337572
-0.00288044
-0.00236215
-0.00298799
-0.00140168
-0.00269419
-0.000630132
-0.00203522
-0.000150138
-0.00115503
-0.000290051
-0.000249679
0.000758486
-0.000827769
0.00191027
-0.00160639
0.00270011
-0.00249359
0.00316969
-0.00342141
0.00336987
-0.0043355
0.00333742
-0.00518714
0.00309011
-0.00592808
0.00263162
-0.00650843
0.0019624
-0.0068772
0.00109243
-0.00698564
5.38366e-05
-0.00679325
-0.00109109
-0.00627768
-0.00224
-0.00544765
-0.00325458
-0.00435752
-0.00397058
-0.00311793
-0.00422758
-0.00189258
-0.00391953
-0.000870362
-0.00305744
-0.000212989
-0.0018124
-0.000503039
-0.000284494
0.00104298
-0.000937613
0.00256338
-0.00181155
0.00357405
-0.00280322
0.00416136
-0.00384012
0.00440677
-0.00486754
0.00436485
-0.00583822
0.00406079
-0.00670516
0.00349855
-0.00741756
0.0026748
-0.00791955
0.00159441
-0.00815136
0.000285644
-0.00805562
-0.00118683
-0.00758616
-0.00270946
-0.00672556
-0.00411518
-0.00550729
-0.00518884
-0.00403888
-0.00569599
-0.00251266
-0.00544575
-0.00118311
-0.00438699
-0.000297154
-0.00269835
-0.000800193
-0.000309907
0.00135289
-0.00101848
0.00327195
-0.00196336
0.00451894
-0.00303341
0.00523141
-0.0041539
0.00552725
-0.00527198
0.00548294
-0.00634449
0.00513329
-0.0073287
0.00448276
-0.00817617
0.00352228
-0.00882914
0.00224738
-0.00921953
0.000676033
-0.00927239
-0.00113397
-0.00891464
-0.00306721
-0.00809347
-0.00493636
-0.0068056
-0.00647671
-0.00513565
-0.00736594
-0.00329005
-0.00729134
-0.0015943
-0.00608275
-0.000413359
-0.00387929
-0.00121355
-0.00032474
0.00167763
-0.00106604
0.00401326
-0.00205207
0.00550496
-0.00316624
0.00634558
-0.00433347
0.00669448
-0.00550488
0.00665435
-0.006644
0.00627241
-0.0077159
0.00555465
-0.00867896
0.00448534
-0.00947893
0.00304735
-0.0100451
0.00124217
-0.0102898
-0.000889188
-0.0101146
-0.00324241
-0.0094257
-0.0056253
-0.00816673
-0.00773568
-0.0063716
-0.00916107
-0.00422956
-0.00943339
-0.00212492
-0.00818739
-0.000573424
-0.00543079
-0.00178698
-0.000329206
0.00200683
-0.00107923
0.00476329
-0.00207225
0.00649798
-0.00318784
0.00746117
-0.0043521
0.00785873
-0.00552189
0.00782414
-0.00667005
0.00742057
-0.00777315
0.00665775
-0.00880179
0.00551398
-0.00971257
0.00395813
-0.0104413
0.00197087
-0.0108978
-0.000432668
-0.0109667
-0.00317355
-0.010515
-0.00607692
-0.00942248
-0.00882824
-0.00764124
-0.0109423
-0.00529455
-0.0117801
-0.00278334
-0.0106986
-0.000789943
-0.00742419
-0.00257692
-0.000326482
0.00233331
-0.00106378
0.00550058
-0.00202816
0.00746236
-0.00309566
0.00852867
-0.00419494
0.00895802
-0.00529069
0.00891989
-0.0063676
0.00849749
-0.00741742
0.00770757
-0.00842835
0.00652492
-0.00937588
0.00490566
-0.0102136
0.00280859
-0.0108629
0.000216631
-0.0112077
-0.00282873
-0.0110887
-0.00619595
-0.0103222
-0.00959474
-0.00875512
-0.0125094
-0.00638604
-0.0141491
-0.00355251
-0.0135321
-0.00107475
-0.00990194
-0.00365167
-0.000324858
0.00265817
-0.00103664
0.00621236
-0.00193978
0.0083655
-0.00290589
0.00949478
-0.00386875
0.00992088
-0.00480397
0.00985511
-0.00571118
0.0094047
-0.0066005
0.00859689
-0.00748212
0.00740653
-0.00835709
0.00578064
-0.00920711
0.00365861
-0.0099825
0.000992022
-0.0105844
-0.00222687
-0.0108529
-0.00592744
-0.01056
-0.0098876
-0.00944363
-0.0136258
-0.00732642
-0.0162664
-0.00437182
-0.0164867
-0.00143464
-0.0128391
-0.00508631
-0.000340874
0.00299905
-0.00103101
0.0069025
-0.00184814
0.00918262
-0.00265878
0.0103054
-0.00340763
0.0106697
-0.00408717
0.0105347
-0.00471617
0.0100337
-0.00532598
0.0092067
-0.00595109
0.00803164
-0.00662161
0.00645116
-0.007354
0.00439099
-0.00813812
0.00177615
-0.00891634
-0.00144866
-0.00955836
-0.00528542
-0.0098303
-0.00961566
-0.00938847
-0.0140676
-0.00785953
-0.0177953
-0.00511768
-0.0192286
-0.00186257
-0.0160942
-0.00694888
-0.000404195
0.00340324
-0.00110165
0.00759996
-0.00181754
0.00989851
-0.0024169
0.0109048
-0.00286824
0.0111211
-0.00319164
0.0108581
-0.00343127
0.0102733
-0.00364237
0.00941781
-0.00388355
0.00827281
-0.00421305
0.00678066
-0.00468232
0.00486026
-0.00532569
0.00241953
-0.00614127
-0.000633078
-0.00705945
-0.00436724
-0.00789215
-0.00878296
-0.00827588
-0.0136839
-0.00767319
-0.018398
-0.0055906
-0.0213112
-0.0023227
-0.0193621
-0.00927158
-0.000565861
0.0039691
-0.0013279
0.008362
-0.00192693
0.0104975
-0.0022446
0.0112225
-0.00229913
0.0111756
-0.00215581
0.0107147
-0.0018926
0.0100101
-0.00159145
0.00911666
-0.00133207
0.00801344
-0.00119627
0.00664486
-0.0012645
0.00492849
-0.00161137
0.00276639
-0.00229349
4.90447e-05
-0.0033215
-0.00333923
-0.00460356
-0.0075009
-0.00584317
-0.0124442
-0.00643314
-0.017808
-0.00551341
-0.0222309
-0.00272888
-0.0221467
-0.0120005
-0.000905989
0.00487509
-0.00179886
0.00925487
-0.00222231
0.010921
-0.00213133
0.0111315
-0.00164203
0.0106863
-0.000890802
0.0099635
-4.8018e-07
0.0091198
0.000926195
0.00818998
0.00178761
0.00715202
0.00248809
0.00594438
0.00292834
0.00448824
0.00300466
0.00269007
0.00261158
0.000442123
0.00165982
-0.00238747
0.000116381
-0.00595746
-0.00187682
-0.010451
-0.00379424
-0.0158906
-0.00452394
-0.0215012
-0.00291353
-0.0237571
-0.014914
-0.00152408
0.00639917
-0.00250748
0.0102383
-0.00251452
0.010928
-0.00172697
0.0103439
-0.000437436
0.00939676
0.00112204
0.00840403
0.00278653
0.00745531
0.00443244
0.00654408
0.00595893
0.00562553
0.00726773
0.00463558
0.00825456
0.00350142
0.00880225
0.00214237
0.00877552
0.000468857
0.00802748
-0.00163943
0.00641026
-0.00434024
0.00386549
-0.00790628
0.00067479
-0.0126999
-0.00210874
-0.0187177
-0.00254043
-0.0233254
-0.0174544
-0.00235191
0.00875108
-0.00286997
0.0107563
-0.00169848
0.00975653
0.000385609
0.00825984
0.00285697
0.0069254
0.0054264
0.00583459
0.00793469
0.00494702
0.0102848
0.00419401
0.0124025
0.00350782
0.0142129
0.00282516
0.0156276
0.0020867
0.0165359
0.00123405
0.0167966
0.000208204
0.0162402
-0.00108302
0.0146481
-0.00274812
0.0117825
-0.00504073
0.00753343
-0.00845082
0.00253562
-0.0137199
-0.000942011
-0.0198478
-0.0183964
-0.00199404
0.0107451
0.000360242
0.00840205
0.00429302
0.00582376
0.0082595
0.00429335
0.0119591
0.00322576
0.0153035
0.00249025
0.0182786
0.00197192
0.0208912
0.00158143
0.0231396
0.00125934
0.025001
0.000963762
0.0264254
0.000662318
0.0273303
0.000329207
0.0275966
-5.8161e-05
0.0270725
-0.00055888
0.0255265
-0.00120218
0.0226253
-0.00213953
0.0179011
-0.00372659
0.010916
-0.0067347
0.00300925
-0.0119411
-0.0153872
0.0107451
0.0191472
0.0249709
0.0292643
0.03249
0.0349803
0.0369522
0.0385336
0.039793
0.0407568
0.0414191
0.0417483
0.0416901
0.0411312
0.0399291
0.0377895
0.0340629
0.0273282
0.0153872
)
;

boundaryField
{
    movingWall
    {
        type            calculated;
        value           uniform 0;
    }
    fixedWalls
    {
        type            calculated;
        value           uniform 0;
    }
    frontAndBack
    {
        type            empty;
    }
}


// ************************************************************************* //
