/*--------------------------------*- C++ -*----------------------------------*\
  =========                 |
  \\      /  F ield         | OpenFOAM: The Open Source CFD Toolbox
   \\    /   O peration     | Website:  https://openfoam.org
    \\  /    A nd           | Version:  13
     \\/     M anipulation  |
\*---------------------------------------------------------------------------*/
FoamFile
{
    format      ascii;
    class       volVectorField;
    location    "7";
    object      U;
}
// * * * * * * * * * * * * * * * * * * * * * * * * * * * * * * * * * * * * * //

dimensions      [0 1 -1 0 0 0 0];

internalField   nonuniform List<vector> 
400
(
(0.000188327 -0.000188028 0)
(-0.000127978 -2.46569e-06 0)
(-0.00146979 0.000198265 0)
(-0.00356475 0.000324562 0)
(-0.00611565 0.000389493 0)
(-0.00885106 0.000412913 0)
(-0.0115435 0.000404964 0)
(-0.0139827 0.000365922 0)
(-0.0159533 0.000290422 0)
(-0.0172335 0.000173452 0)
(-0.0176165 1.66147e-05 0)
(-0.0169547 -0.000169131 0)
(-0.0152141 -0.000355813 0)
(-0.0125228 -0.000505851 0)
(-0.00919564 -0.000578434 0)
(-0.00571088 -0.00054237 0)
(-0.00263239 -0.000388246 0)
(-0.000456685 -0.000141763 0)
(0.000490467 0.000113649 0)
(0.000290298 0.000278102 0)
(-6.54515e-06 0.000125504 0)
(-0.00189877 0.00177962 0)
(-0.00597132 0.00342308 0)
(-0.0116237 0.00455091 0)
(-0.0182048 0.0051417 0)
(-0.0251196 0.00526259 0)
(-0.0318223 0.00496274 0)
(-0.0377911 0.0042519 0)
(-0.0425059 0.00312208 0)
(-0.045461 0.00158703 0)
(-0.0462201 -0.000277491 0)
(-0.0444986 -0.00230706 0)
(-0.040268 -0.00424085 0)
(-0.0338451 -0.00575336 0)
(-0.025923 -0.0065195 0)
(-0.0175238 -0.00630971 0)
(-0.0098418 -0.0050903 0)
(-0.00397483 -0.00309985 0)
(-0.000613907 -0.000917305 0)
(0.000211923 0.000514033 0)
(-0.000259569 0.00160592 0)
(-0.00403526 0.00598921 0)
(-0.0108579 0.00981191 0)
(-0.0197471 0.0123889 0)
(-0.0297691 0.0136906 0)
(-0.0401195 0.0138299 0)
(-0.0500411 0.0128922 0)
(-0.0588004 0.0109014 0)
(-0.0656721 0.00786607 0)
(-0.0699651 0.00385963 0)
(-0.0710943 -0.000900102 0)
(-0.0686846 -0.00599812 0)
(-0.0626934 -0.010821 0)
(-0.0535195 -0.0146204 0)
(-0.042055 -0.0166551 0)
(-0.0296458 -0.0163954 0)
(-0.0179146 -0.0137483 0)
(-0.00843128 -0.00923091 0)
(-0.00231158 -0.00403949 0)
(6.62216e-05 -7.2308e-05 0)
(-0.000485184 0.00422617 0)
(-0.00608616 0.0125554 0)
(-0.0155461 0.0191522 0)
(-0.0274402 0.0234398 0)
(-0.040556 0.0254951 0)
(-0.0539342 0.0255145 0)
(-0.0666819 0.0236282 0)
(-0.077933 0.0198771 0)
(-0.0868285 0.0142941 0)
(-0.0925431 0.00703 0)
(-0.0943612 -0.00152603 0)
(-0.0917854 -0.0106689 0)
(-0.0846742 -0.0193675 0)
(-0.0733808 -0.0263618 0)
(-0.058852 -0.0303749 0)
(-0.0426438 -0.0304409 0)
(-0.0267759 -0.0262929 0)
(-0.0133675 -0.0186835 0)
(-0.00414763 -0.00948455 0)
(-4.9802e-05 -0.00157231 0)
(-0.000678779 0.00789983 0)
(-0.00793949 0.0213135 0)
(-0.0198246 0.0312081 0)
(-0.0344709 0.0373913 0)
(-0.0504048 0.0401966 0)
(-0.0665519 0.0399715 0)
(-0.0819406 0.0369118 0)
(-0.0956343 0.0310754 0)
(-0.106692 0.0225103 0)
(-0.114179 0.0114299 0)
(-0.117237 -0.00162218 0)
(-0.115184 -0.0156569 0)
(-0.107665 -0.0292136 0)
(-0.0948401 -0.0404538 0)
(-0.0775578 -0.047425 0)
(-0.0574842 -0.048515 0)
(-0.0370496 -0.0430524 0)
(-0.0190844 -0.0318706 0)
(-0.00620451 -0.0175242 0)
(-0.000145809 -0.00402378 0)
(-0.000841918 0.0125009 0)
(-0.00954511 0.0320375 0)
(-0.023566 0.0457229 0)
(-0.040654 0.0539846 0)
(-0.0591141 0.0575653 0)
(-0.0777969 0.0570439 0)
(-0.0957033 0.0527116 0)
(-0.11188 0.0446391 0)
(-0.125347 0.0328624 0)
(-0.135087 0.0176101 0)
(-0.140078 -0.000480859 0)
(-0.139391 -0.0201941 0)
(-0.132346 -0.0396709 0)
(-0.118739 -0.056448 0)
(-0.0991356 -0.0677347 0)
(-0.0751545 -0.0709744 0)
(-0.0495991 -0.0647113 0)
(-0.0261764 -0.0495508 0)
(-0.0087549 -0.028689 0)
(-0.000255425 -0.00757653 0)
(-0.000971932 0.0178837 0)
(-0.0108541 0.0444389 0)
(-0.0266423 0.0623586 0)
(-0.0457721 0.0728869 0)
(-0.0663795 0.077317 0)
(-0.0872833 0.0765424 0)
(-0.107506 0.0709834 0)
(-0.126132 0.0607182 0)
(-0.142194 0.0457294 0)
(-0.154624 0.0261879 0)
(-0.162248 0.00272418 0)
(-0.163861 -0.0233363 0)
(-0.158366 -0.0498137 0)
(-0.145035 -0.073628 0)
(-0.123916 -0.0910034 0)
(-0.0963188 -0.0980791 0)
(-0.0652406 -0.0920603 0)
(-0.0353325 -0.0727677 0)
(-0.0121539 -0.0438345 0)
(-0.000421572 -0.0125553 0)
(-0.00106329 0.0238752 0)
(-0.0118103 0.0581613 0)
(-0.0289101 0.080682 0)
(-0.0495633 0.0936522 0)
(-0.071791 0.09904 0)
(-0.0944215 0.0981362 0)
(-0.116548 0.0915296 0)
(-0.137348 0.0793031 0)
(-0.155932 0.0613418 0)
(-0.171247 0.0376715 0)
(-0.182029 0.00878826 0)
(-0.18682 -0.0240332 0)
(-0.184077 -0.0584476 0)
(-0.172435 -0.0908573 0)
(-0.151172 -0.116441 0)
(-0.120914 -0.129687 0)
(-0.0844456 -0.125749 0)
(-0.047188 -0.102743 0)
(-0.0168001 -0.0641541 0)
(-0.000698148 -0.0194904 0)
(-0.00111204 0.0302718 0)
(-0.0123692 0.072777 0)
(-0.0302413 0.10015 0)
(-0.0517651 0.115682 0)
(-0.0748919 0.122123 0)
(-0.0984957 0.121245 0)
(-0.121785 0.113854 0)
(-0.144091 0.100047 0)
(-0.164683 0.0795789 0)
(-0.182623 0.0522494 0)
(-0.196669 0.0182831 0)
(-0.205224 -0.0212813 0)
(-0.20638 -0.0641723 0)
(-0.198107 -0.106505 0)
(-0.178715 -0.142525 0)
(-0.147697 -0.164868 0)
(-0.106973 -0.165877 0)
(-0.0621462 -0.140612 0)
(-0.0231166 -0.0911138 0)
(-0.00116047 -0.0291403 0)
(-0.0011229 0.0368552 0)
(-0.012535 0.0878059 0)
(-0.0305889 0.120114 0)
(-0.0522058 0.138203 0)
(-0.0752988 0.145703 0)
(-0.0988181 0.144955 0)
(-0.122129 0.137043 0)
(-0.144781 0.122111 0)
(-0.166286 0.0997793 0)
(-0.185949 0.0695674 0)
(-0.202718 0.0313153 0)
(-0.215057 -0.0143706 0)
(-0.220893 -0.065584 0)
(-0.217666 -0.118527 0)
(-0.202655 -0.166881 0)
(-0.173831 -0.201537 0)
(-0.13142 -0.211454 0)
(-0.0801015 -0.186961 0)
(-0.0315117 -0.126278 0)
(-0.00192276 -0.0425138 0)
(-0.00111982 0.0434331 0)
(-0.012414 0.102771 0)
(-0.0300766 0.139858 0)
(-0.0509289 0.160282 0)
(-0.0728638 0.168657 0)
(-0.0949432 0.167986 0)
(-0.116735 0.159714 0)
(-0.138062 0.144086 0)
(-0.158771 0.120619 0)
(-0.178538 0.0885504 0)
(-0.196694 0.0472753 0)
(-0.212019 -0.00318799 0)
(-0.222593 -0.0616218 0)
(-0.225637 -0.12478 0)
(-0.217586 -0.186417 0)
(-0.194724 -0.236264 0)
(-0.154802 -0.259842 0)
(-0.100033 -0.24114 0)
(-0.0422714 -0.170949 0)
(-0.00316175 -0.0608791 0)
(-0.00116184 0.0499178 0)
(-0.0122847 0.117295 0)
(-0.0291049 0.158676 0)
(-0.0483271 0.180875 0)
(-0.0678415 0.189634 0)
(-0.0868868 0.188732 0)
(-0.105295 0.180055 0)
(-0.123224 0.164026 0)
(-0.140923 0.140122 0)
(-0.158545 0.107351 0)
(-0.175964 0.0646753 0)
(-0.192559 0.0114492 0)
(-0.206906 -0.05202 0)
(-0.216469 -0.123556 0)
(-0.217339 -0.197825 0)
(-0.204359 -0.264483 0)
(-0.172387 -0.306427 0)
(-0.119538 -0.300465 0)
(-0.0553212 -0.225547 0)
(-0.00513914 -0.0857195 0)
(-0.00137043 0.0564552 0)
(-0.0126917 0.131252 0)
(-0.0284587 0.175975 0)
(-0.0452468 0.1989 0)
(-0.060994 0.207135 0)
(-0.0752541 0.205355 0)
(-0.0882265 0.195961 0)
(-0.100471 0.179618 0)
(-0.112684 0.15584 0)
(-0.125548 0.123498 0)
(-0.139572 0.0812079 0)
(-0.154885 0.0277026 0)
(-0.170903 -0.037689 0)
(-0.18587 -0.114253 0)
(-0.196256 -0.198415 0)
(-0.196227 -0.281242 0)
(-0.17803 -0.34484 0)
(-0.134527 -0.359588 0)
(-0.0698112 -0.288685 0)
(-0.00819901 -0.118565 0)
(-0.00197868 0.0636297 0)
(-0.0145746 0.144928 0)
(-0.0293891 0.191352 0)
(-0.0429924 0.213273 0)
(-0.053521 0.21956 0)
(-0.061117 0.215896 0)
(-0.0665178 0.205212 0)
(-0.0707691 0.188435 0)
(-0.0750354 0.165158 0)
(-0.0805043 0.134217 0)
(-0.088303 0.0940201 0)
(-0.0993428 0.0428396 0)
(-0.114045 -0.02087 0)
(-0.131863 -0.0979206 0)
(-0.150473 -0.187087 0)
(-0.164582 -0.282401 0)
(-0.165026 -0.367898 0)
(-0.139299 -0.410475 0)
(-0.0835511 -0.356132 0)
(-0.0126881 -0.160607 0)
(-0.00343302 0.0728219 0)
(-0.0194397 0.159229 0)
(-0.0335699 0.204621 0)
(-0.0430302 0.222864 0)
(-0.0465388 0.225187 0)
(-0.0453135 0.218312 0)
(-0.0408782 0.205592 0)
(-0.0348686 0.188145 0)
(-0.0289042 0.165594 0)
(-0.0245935 0.136813 0)
(-0.0235696 0.100138 0)
(-0.0274077 0.0536115 0)
(-0.0374889 -0.00487344 0)
(-0.0546378 -0.0773567 0)
(-0.0783785 -0.165 0)
(-0.105337 -0.265904 0)
(-0.127049 -0.369101 0)
(-0.12697 -0.443218 0)
(-0.0924189 -0.419899 0)
(-0.018693 -0.211938 0)
(-0.00650083 0.08665 0)
(-0.0294105 0.175455 0)
(-0.0424792 0.215254 0)
(-0.0457196 0.225924 0)
(-0.0392944 0.221728 0)
(-0.0262894 0.210198 0)
(-0.00930623 0.194775 0)
(0.00932618 0.176472 0)
(0.027596 0.154912 0)
(0.043647 0.128944 0)
(0.0555049 0.0969423 0)
(0.0611561 0.0569473 0)
(0.0584846 0.00669825 0)
(0.0454705 -0.0564659 0)
(0.0205728 -0.135446 0)
(-0.0157503 -0.232493 0)
(-0.0584022 -0.344097 0)
(-0.0896239 -0.44728 0)
(-0.0897974 -0.46763 0)
(-0.0253858 -0.27017 0)
(-0.0126053 0.110567 0)
(-0.0463431 0.195415 0)
(-0.0542024 0.221804 0)
(-0.0454695 0.219377 0)
(-0.0234333 0.205734 0)
(0.00596455 0.188371 0)
(0.0388589 0.170062 0)
(0.0724626 0.15123 0)
(0.104619 0.131274 0)
(0.133411 0.108944 0)
(0.15685 0.08271 0)
(0.172772 0.0507958 0)
(0.178654 0.0111502 0)
(0.171718 -0.0388319 0)
(0.148821 -0.102635 0)
(0.107503 -0.18542 0)
(0.0472389 -0.29172 0)
(-0.0170784 -0.412939 0)
(-0.0656725 -0.483391 0)
(-0.0297439 -0.329114 0)
(-0.0215803 0.148807 0)
(-0.0657136 0.212935 0)
(-0.0509589 0.213885 0)
(-0.0160111 0.193065 0)
(0.0313691 0.169159 0)
(0.0827583 0.147162 0)
(0.134095 0.127796 0)
(0.183045 0.110357 0)
(0.228034 0.0937156 0)
(0.267657 0.0765734 0)
(0.300327 0.0575805 0)
(0.324126 0.0353126 0)
(0.336513 0.00819043 0)
(0.334549 -0.0258095 0)
(0.31421 -0.0696237 0)
(0.271231 -0.129071 0)
(0.199503 -0.214248 0)
(0.10601 -0.334426 0)
(-0.00425192 -0.450838 0)
(-0.0234325 -0.378151 0)
(-0.027359 0.229729 0)
(-0.0362873 0.223401 0)
(0.0464181 0.176733 0)
(0.126111 0.13802 0)
(0.203573 0.108459 0)
(0.274265 0.0867496 0)
(0.337467 0.070583 0)
(0.393309 0.0578778 0)
(0.441942 0.0470696 0)
(0.483168 0.0369396 0)
(0.516276 0.0264713 0)
(0.540005 0.0147534 0)
(0.552263 0.000861453 0)
(0.55063 -0.0161795 0)
(0.530979 -0.0383683 0)
(0.488927 -0.0699767 0)
(0.414172 -0.120727 0)
(0.304087 -0.213336 0)
(0.125366 -0.348281 0)
(0.0235367 -0.378708 0)
(0.214558 0.135911 0)
(0.285513 0.0985935 0)
(0.445083 0.0569805 0)
(0.548102 0.0365542 0)
(0.621352 0.0240722 0)
(0.677313 0.0161992 0)
(0.721279 0.0112303 0)
(0.756392 0.00794614 0)
(0.78456 0.00557334 0)
(0.806707 0.00363313 0)
(0.823006 0.00180446 0)
(0.83308 -0.000133325 0)
(0.836009 -0.00239829 0)
(0.830403 -0.00495118 0)
(0.813187 -0.00843247 0)
(0.781877 -0.013483 0)
(0.724151 -0.0232003 0)
(0.635339 -0.0406448 0)
(0.431308 -0.0913368 0)
(0.270886 -0.153542 0)
)
;

boundaryField
{
    movingWall
    {
        type            fixedValue;
        value           uniform (1 0 0);
    }
    fixedWalls
    {
        type            fixedValue;
        value           uniform (0 0 0);
    }
    frontAndBack
    {
        type            empty;
    }
}


// ************************************************************************* //
