/*--------------------------------*- C++ -*----------------------------------*\
  =========                 |
  \\      /  F ield         | OpenFOAM: The Open Source CFD Toolbox
   \\    /   O peration     | Website:  https://openfoam.org
    \\  /    A nd           | Version:  13
     \\/     M anipulation  |
\*---------------------------------------------------------------------------*/
FoamFile
{
    format      ascii;
    class       volVectorField;
    location    "7";
    object      U_0;
}
// * * * * * * * * * * * * * * * * * * * * * * * * * * * * * * * * * * * * * //

dimensions      [0 1 -1 0 0 0 0];

internalField   nonuniform List<vector> 
400
(
(0.000188219 -0.000187922 0)
(-0.000128132 -2.41504e-06 0)
(-0.00146962 0.000198248 0)
(-0.00356393 0.000324495 0)
(-0.00611397 0.000389391 0)
(-0.00884842 0.00041279 0)
(-0.0115399 0.00040483 0)
(-0.0139782 0.000365791 0)
(-0.0159481 0.000290314 0)
(-0.0172279 0.00017339 0)
(-0.0176109 1.66175e-05 0)
(-0.0169496 -0.000169053 0)
(-0.0152098 -0.000355667 0)
(-0.0125198 -0.000505663 0)
(-0.00919384 -0.000578247 0)
(-0.00571023 -0.000542231 0)
(-0.00263258 -0.000388183 0)
(-0.000457176 -0.000141778 0)
(0.000490056 0.000113491 0)
(0.000290152 0.000277964 0)
(-6.58364e-06 0.000125651 0)
(-0.00189828 0.00177923 0)
(-0.00596947 0.00342205 0)
(-0.0116199 0.0045494 0)
(-0.0181985 0.0051399 0)
(-0.0251107 0.00526068 0)
(-0.0318109 0.00496092 0)
(-0.0377774 0.00425036 0)
(-0.0424907 0.00312105 0)
(-0.045445 0.00158668 0)
(-0.0462043 -0.000277025 0)
(-0.0444841 -0.00230578 0)
(-0.0402557 -0.00423889 0)
(-0.0338356 -0.00575101 0)
(-0.0259167 -0.00651716 0)
(-0.0175204 -0.00630778 0)
(-0.00984057 -0.0050891 0)
(-0.00397487 -0.00309948 0)
(-0.000614314 -0.000917683 0)
(0.00021177 0.00051357 0)
(-0.000259495 0.00160562 0)
(-0.00403378 0.00598735 0)
(-0.0108538 0.00980852 0)
(-0.0197396 0.0123844 0)
(-0.0297576 0.0136855 0)
(-0.040104 0.0138247 0)
(-0.0500219 0.0128874 0)
(-0.058778 0.0108975 0)
(-0.0656476 0.00786364 0)
(-0.0699397 0.00385903 0)
(-0.0710693 -0.000898637 0)
(-0.0686616 -0.00599465 0)
(-0.0626735 -0.0108159 0)
(-0.0535037 -0.0146144 0)
(-0.0420436 -0.016649 0)
(-0.0296387 -0.0163902 0)
(-0.0179111 -0.0137447 0)
(-0.00843012 -0.00922932 0)
(-0.00231156 -0.00403956 0)
(6.61126e-05 -7.29519e-05 0)
(-0.00048499 0.00422485 0)
(-0.00608365 0.012551 0)
(-0.0155397 0.019145 0)
(-0.027429 0.023431 0)
(-0.0405396 0.0254854 0)
(-0.0539127 0.0255048 0)
(-0.0666557 0.0236195 0)
(-0.077903 0.0198702 0)
(-0.086796 0.01429 0)
(-0.0925096 0.00702923 0)
(-0.0943283 -0.00152316 0)
(-0.0917549 -0.0106626 0)
(-0.0846474 -0.0193583 0)
(-0.073359 -0.026351 0)
(-0.0588356 -0.0303639 0)
(-0.0426328 -0.0304312 0)
(-0.0267696 -0.0262858 0)
(-0.0133648 -0.0186796 0)
(-0.00414704 -0.00948364 0)
(-4.98662e-05 -0.00157287 0)
(-0.000678479 0.00789694 0)
(-0.00793608 0.0213053 0)
(-0.0198163 0.031196 0)
(-0.0344567 0.0373769 0)
(-0.0503845 0.0401812 0)
(-0.0665256 0.0399565 0)
(-0.081909 0.0368986 0)
(-0.0955985 0.0310652 0)
(-0.106653 0.0225043 0)
(-0.114139 0.0114289 0)
(-0.117198 -0.00161774 0)
(-0.115148 -0.0156473 0)
(-0.107633 -0.0291999 0)
(-0.0948128 -0.0404374 0)
(-0.0775366 -0.047408 0)
(-0.0574693 -0.0484996 0)
(-0.0370405 -0.0430406 0)
(-0.0190801 -0.0318634 0)
(-0.00620328 -0.0175216 0)
(-0.000145828 -0.00402393 0)
(-0.000841546 0.012496 0)
(-0.00954111 0.0320249 0)
(-0.0235564 0.045705 0)
(-0.0406378 0.0539637 0)
(-0.0590912 0.0575435 0)
(-0.0777676 0.0570231 0)
(-0.0956685 0.0526934 0)
(-0.111841 0.0446253 0)
(-0.125305 0.0328544 0)
(-0.135044 0.017609 0)
(-0.140035 -0.000474853 0)
(-0.139351 -0.0201813 0)
(-0.132309 -0.0396524 0)
(-0.118708 -0.0564258 0)
(-0.0991103 -0.0677112 0)
(-0.0751359 -0.0709524 0)
(-0.0495873 -0.0646936 0)
(-0.0261704 -0.0495392 0)
(-0.00875299 -0.0286837 0)
(-0.000255394 -0.00757594 0)
(-0.000971533 0.0178766 0)
(-0.0108499 0.0444214 0)
(-0.0266323 0.0623344 0)
(-0.0457554 0.0728592 0)
(-0.0663561 0.0772885 0)
(-0.0872535 0.0765155 0)
(-0.107471 0.0709603 0)
(-0.126092 0.0607008 0)
(-0.142152 0.0457194 0)
(-0.154581 0.0261863 0)
(-0.162205 0.00273146 0)
(-0.16382 -0.0233207 0)
(-0.158328 -0.0497909 0)
(-0.145001 -0.0736002 0)
(-0.123888 -0.0909734 0)
(-0.0962974 -0.0980502 0)
(-0.0652263 -0.0920359 0)
(-0.0353249 -0.0727505 0)
(-0.0121513 -0.0438257 0)
(-0.00042148 -0.0125536 0)
(-0.00106292 0.0238658 0)
(-0.0118064 0.0581389 0)
(-0.0289007 0.0806516 0)
(-0.0495477 0.0936179 0)
(-0.0717692 0.0990052 0)
(-0.094394 0.0981036 0)
(-0.116515 0.0915018 0)
(-0.137312 0.0792823 0)
(-0.155893 0.0613298 0)
(-0.171208 0.0376694 0)
(-0.18199 0.00879638 0)
(-0.186782 -0.0240154 0)
(-0.184041 -0.0584214 0)
(-0.172402 -0.0908248 0)
(-0.151144 -0.116405 0)
(-0.120892 -0.129651 0)
(-0.0844298 -0.125717 0)
(-0.0471789 -0.102719 0)
(-0.0167968 -0.0641411 0)
(-0.000697978 -0.0194873 0)
(-0.00111176 0.0302605 0)
(-0.012366 0.0727503 0)
(-0.0302337 0.100114 0)
(-0.0517524 0.115642 0)
(-0.0748741 0.122083 0)
(-0.0984733 0.121207 0)
(-0.121759 0.113822 0)
(-0.144063 0.100023 0)
(-0.164653 0.0795654 0)
(-0.182592 0.0522468 0)
(-0.196638 0.0182918 0)
(-0.205194 -0.0212621 0)
(-0.206351 -0.0641439 0)
(-0.19808 -0.106469 0)
(-0.17869 -0.142485 0)
(-0.147676 -0.164827 0)
(-0.106957 -0.165839 0)
(-0.0621364 -0.140582 0)
(-0.0231126 -0.091096 0)
(-0.0011602 -0.0291353 0)
(-0.00112276 0.0368425 0)
(-0.012533 0.0877761 0)
(-0.030584 0.120074 0)
(-0.0521975 0.138158 0)
(-0.0752872 0.145659 0)
(-0.0988035 0.144914 0)
(-0.122113 0.137008 0)
(-0.144763 0.122086 0)
(-0.166267 0.099765 0)
(-0.18593 0.0695647 0)
(-0.2027 0.0313243 0)
(-0.215039 -0.0143508 0)
(-0.220876 -0.0655547 0)
(-0.217649 -0.11849 0)
(-0.202638 -0.166839 0)
(-0.173815 -0.201493 0)
(-0.131406 -0.211412 0)
(-0.0800921 -0.186925 0)
(-0.0315074 -0.126255 0)
(-0.00192238 -0.0425066 0)
(-0.00111986 0.0434198 0)
(-0.0124137 0.102739 0)
(-0.0300753 0.139816 0)
(-0.0509264 0.160235 0)
(-0.0728601 0.16861 0)
(-0.0949385 0.167944 0)
(-0.11673 0.159679 0)
(-0.138058 0.144061 0)
(-0.158767 0.120605 0)
(-0.178535 0.0885482 0)
(-0.196691 0.0472846 0)
(-0.212017 -0.00316824 0)
(-0.222591 -0.0615931 0)
(-0.225633 -0.124744 0)
(-0.21758 -0.186376 0)
(-0.194716 -0.236219 0)
(-0.154793 -0.259797 0)
(-0.100025 -0.2411 0)
(-0.0422673 -0.170922 0)
(-0.00316124 -0.0608697 0)
(-0.00116207 0.0499048 0)
(-0.0122862 0.117264 0)
(-0.0291077 0.158634 0)
(-0.0483311 0.180829 0)
(-0.0678467 0.189588 0)
(-0.0868933 0.18869 0)
(-0.105303 0.180021 0)
(-0.123234 0.164002 0)
(-0.140934 0.140109 0)
(-0.158558 0.10735 0)
(-0.175979 0.0646852 0)
(-0.192573 0.0114686 0)
(-0.20692 -0.0519928 0)
(-0.21648 -0.123523 0)
(-0.217347 -0.197787 0)
(-0.204362 -0.264441 0)
(-0.172385 -0.306384 0)
(-0.119534 -0.300425 0)
(-0.0553179 -0.225517 0)
(-0.00513854 -0.085708 0)
(-0.00137085 0.0564436 0)
(-0.012695 0.131223 0)
(-0.0284656 0.175935 0)
(-0.0452574 0.198856 0)
(-0.0610082 0.207091 0)
(-0.0752717 0.205315 0)
(-0.0882475 0.195929 0)
(-0.100495 0.179596 0)
(-0.112711 0.155829 0)
(-0.125577 0.123498 0)
(-0.139602 0.0812185 0)
(-0.154915 0.0277215 0)
(-0.170931 -0.0376639 0)
(-0.185895 -0.114224 0)
(-0.196276 -0.198382 0)
(-0.196241 -0.281206 0)
(-0.178037 -0.344802 0)
(-0.134529 -0.35955 0)
(-0.0698098 -0.288655 0)
(-0.0081984 -0.118552 0)
(-0.00197924 0.0636203 0)
(-0.0145794 0.144904 0)
(-0.0293996 0.191317 0)
(-0.0430089 0.213233 0)
(-0.0535433 0.21952 0)
(-0.0611445 0.215861 0)
(-0.0665502 0.205184 0)
(-0.0708052 0.188416 0)
(-0.0750739 0.16515 0)
(-0.0805446 0.134219 0)
(-0.0883439 0.0940312 0)
(-0.0993832 0.0428576 0)
(-0.114084 -0.0208473 0)
(-0.131899 -0.0978952 0)
(-0.150503 -0.18706 0)
(-0.164606 -0.282373 0)
(-0.165041 -0.367868 0)
(-0.139307 -0.410443 0)
(-0.0835523 -0.356104 0)
(-0.0126876 -0.160593 0)
(-0.00343366 0.0728154 0)
(-0.0194456 0.15921 0)
(-0.0335831 0.204593 0)
(-0.0430511 0.222831 0)
(-0.046567 0.225154 0)
(-0.0453481 0.218283 0)
(-0.0409192 0.205569 0)
(-0.0349135 0.188129 0)
(-0.0289504 0.165588 0)
(-0.0246407 0.136815 0)
(-0.0236165 0.100149 0)
(-0.0274531 0.0536279 0)
(-0.0375318 -0.00485354 0)
(-0.0546771 -0.0773354 0)
(-0.0784131 -0.164979 0)
(-0.105365 -0.265883 0)
(-0.127069 -0.36908 0)
(-0.126982 -0.443195 0)
(-0.0924229 -0.419877 0)
(-0.0186928 -0.211926 0)
(-0.00650143 0.0866469 0)
(-0.0294166 0.175444 0)
(-0.0424931 0.215235 0)
(-0.045742 0.2259 0)
(-0.0393248 0.221702 0)
(-0.0263263 0.210174 0)
(-0.00935218 0.194757 0)
(0.00927645 0.17646 0)
(0.0275479 0.154907 0)
(0.043598 0.128947 0)
(0.0554572 0.0969514 0)
(0.0611109 0.0569612 0)
(0.0584429 0.00671481 0)
(0.0454328 -0.0564487 0)
(0.0205395 -0.13543 0)
(-0.0157783 -0.232479 0)
(-0.0584239 -0.344084 0)
(-0.089638 -0.447266 0)
(-0.0898033 -0.467614 0)
(-0.0253861 -0.27016 0)
(-0.0126057 0.110567 0)
(-0.0463479 0.19541 0)
(-0.0542142 0.221792 0)
(-0.0454894 0.219361 0)
(-0.0234613 0.205715 0)
(0.00592958 0.188353 0)
(0.0388172 0.170047 0)
(0.0724171 0.151222 0)
(0.104573 0.13127 0)
(0.133365 0.108946 0)
(0.156806 0.0827167 0)
(0.172731 0.0508063 0)
(0.178617 0.0111627 0)
(0.171686 -0.038819 0)
(0.148793 -0.102623 0)
(0.10748 -0.18541 0)
(0.0472203 -0.291712 0)
(-0.0170914 -0.412931 0)
(-0.0656788 -0.483383 0)
(-0.0297446 -0.329108 0)
(-0.0215802 0.148809 0)
(-0.0657156 0.212935 0)
(-0.0509655 0.213881 0)
(-0.0160237 0.193057 0)
(0.0313497 0.169148 0)
(0.0827323 0.147151 0)
(0.134063 0.127786 0)
(0.183009 0.110351 0)
(0.227996 0.0937127 0)
(0.267618 0.0765741 0)
(0.300291 0.0575845 0)
(0.324092 0.0353192 0)
(0.336483 0.00819858 0)
(0.334524 -0.0258012 0)
(0.31419 -0.0696164 0)
(0.271215 -0.129065 0)
(0.199491 -0.214244 0)
(0.106001 -0.334423 0)
(-0.00425684 -0.450836 0)
(-0.0234333 -0.378148 0)
(-0.0273585 0.22973 0)
(-0.0362863 0.223403 0)
(0.0464177 0.176732 0)
(0.126107 0.138017 0)
(0.203565 0.108454 0)
(0.274251 0.0867445 0)
(0.337448 0.0705784 0)
(0.393286 0.0578746 0)
(0.441916 0.0470681 0)
(0.483142 0.0369398 0)
(0.516251 0.0264733 0)
(0.539983 0.0147566 0)
(0.552244 0.000865221 0)
(0.550615 -0.0161756 0)
(0.530968 -0.038365 0)
(0.48892 -0.0699745 0)
(0.414167 -0.120726 0)
(0.304083 -0.213336 0)
(0.125364 -0.348281 0)
(0.0235361 -0.378708 0)
(0.214558 0.135912 0)
(0.285515 0.0985941 0)
(0.445085 0.0569808 0)
(0.548103 0.0365541 0)
(0.621351 0.0240718 0)
(0.677309 0.0161987 0)
(0.721272 0.0112298 0)
(0.756383 0.00794587 0)
(0.78455 0.00557333 0)
(0.806696 0.0036334 0)
(0.822997 0.00180494 0)
(0.833072 -0.00013271 0)
(0.836003 -0.00239781 0)
(0.830399 -0.00495072 0)
(0.813186 -0.00843214 0)
(0.781877 -0.0134829 0)
(0.724151 -0.0232004 0)
(0.63534 -0.040645 0)
(0.431308 -0.091337 0)
(0.270886 -0.153542 0)
)
;

boundaryField
{
    movingWall
    {
        type            calculated;
        value           uniform (1 0 0);
    }
    fixedWalls
    {
        type            calculated;
        value           uniform (0 0 0);
    }
    frontAndBack
    {
        type            empty;
    }
}


// ************************************************************************* //
