/*--------------------------------*- C++ -*----------------------------------*\
  =========                 |
  \\      /  F ield         | OpenFOAM: The Open Source CFD Toolbox
   \\    /   O peration     | Website:  https://openfoam.org
    \\  /    A nd           | Version:  13
     \\/     M anipulation  |
\*---------------------------------------------------------------------------*/
FoamFile
{
    format      ascii;
    class       volScalarField;
    location    "24";
    object      p;
}
// * * * * * * * * * * * * * * * * * * * * * * * * * * * * * * * * * * * * * //

dimensions      [0 2 -2 0 0 0 0];

internalField   nonuniform List<scalar> 
400
(
9.63019e-07
-0.000571433
-0.00121499
-0.00171781
-0.00195811
-0.00188357
-0.00146934
-0.000704364
0.000402473
0.00180712
0.00341584
0.00507614
0.00659216
0.00775222
0.00838094
0.00839681
0.00785657
0.00697017
0.0060493
0.00549563
0.000570895
-1.93471e-05
-0.000568706
-0.000956021
-0.00113095
-0.00106089
-0.000724867
-0.000108109
0.000789928
0.00194062
0.00327095
0.00466128
0.00594185
0.00693097
0.00747542
0.007503
0.00706047
0.00632014
0.00554458
0.00497396
0.00124661
0.000493926
-8.57673e-05
-0.000440386
-0.000605125
-0.000575221
-0.000336175
0.000133722
0.000850853
0.00180807
0.00295604
0.00419299
0.00536563
0.00629502
0.00682047
0.00685414
0.00642203
0.0056695
0.00481029
0.00403855
0.00174147
0.000764628
7.46149e-05
-0.000320971
-0.000536112
-0.000591671
-0.000477116
-0.000158997
0.000401228
0.00122332
0.00228293
0.00349412
0.00470297
0.00571099
0.00632067
0.00639945
0.00593484
0.00505192
0.0039498
0.00284585
0.00179633
0.000596652
-0.000226732
-0.000703833
-0.00101711
-0.00120614
-0.0012582
-0.00112177
-0.000729211
-2.64968e-05
0.000993109
0.00226496
0.00363142
0.0048626
0.00570003
0.00593369
0.00548179
0.00443691
0.00300139
0.00146358
0.00119558
-0.000202088
-0.00116229
-0.00175166
-0.00221032
-0.0025895
-0.002868
-0.00296985
-0.0027905
-0.00223144
-0.00124255
0.000152048
0.00179436
0.00342132
0.00469168
0.00527619
0.00497337
0.00380717
0.00198054
-0.00010248
-0.000240678
-0.0017991
-0.0028912
-0.00362109
-0.0042765
-0.00491534
-0.00550366
-0.00593601
-0.00606294
-0.00572675
-0.00480517
-0.00328343
-0.00126862
0.000948359
0.0029279
0.00417143
0.00428082
0.00313711
0.000904214
-0.0018546
-0.00265089
-0.00432526
-0.0055401
-0.00643805
-0.00734578
-0.00832627
-0.00933228
-0.010227
-0.0108094
-0.0108485
-0.0101315
-0.00853698
-0.00610508
-0.00311035
-8.46181e-05
0.00225676
0.00321432
0.00239694
-0.000175687
-0.00375122
-0.00612016
-0.00786047
-0.00918345
-0.0102704
-0.0114815
-0.0128877
-0.0144326
-0.0159509
-0.0171875
-0.0178254
-0.017533
-0.0160404
-0.0132508
-0.00935533
-0.00493399
-0.000939502
0.00150989
0.00155633
-0.0011354
-0.00564499
-0.0106702
-0.0124223
-0.013826
-0.0151005
-0.0166405
-0.0185339
-0.0207251
-0.0230282
-0.025138
-0.0266466
-0.0270815
-0.0259749
-0.0230317
-0.0182517
-0.0121655
-0.00592003
-0.00114034
0.00060487
-0.00172957
-0.00719329
-0.016259
-0.0179638
-0.0193941
-0.0208045
-0.0226397
-0.0250214
-0.0279091
-0.031109
-0.0342749
-0.0369111
-0.0383925
-0.0380038
-0.0352813
-0.0298309
-0.0220027
-0.0130041
-0.00495773
-0.000373638
-0.00151417
-0.0077188
-0.0228013
-0.0243883
-0.025741
-0.0271466
-0.0291415
-0.0319085
-0.03544
-0.0395468
-0.0438521
-0.0477817
-0.050577
-0.0513743
-0.0491606
-0.0433912
-0.0339863
-0.0219753
-0.00980378
-0.0010228
0.000281909
-0.00599815
-0.0302207
-0.0315844
-0.0326678
-0.0337901
-0.0356661
-0.0385777
-0.0425665
-0.0474524
-0.0528315
-0.0580597
-0.0622481
-0.0643077
-0.0630195
-0.0573294
-0.0466904
-0.0317027
-0.014799
-0.000415148
0.00496741
2.45508e-05
-0.0385581
-0.0394876
-0.0399594
-0.040325
-0.041633
-0.0443074
-0.0484432
-0.0538568
-0.0601032
-0.0664626
-0.0719266
-0.0752188
-0.0748678
-0.069419
-0.0578048
-0.0400001
-0.0180214
0.00328131
0.0147002
0.0135573
-0.0481728
-0.0481551
-0.0474016
-0.0462823
-0.0464101
-0.0483692
-0.0522792
-0.0579107
-0.0647368
-0.0719327
-0.078358
-0.0825587
-0.0828299
-0.0773717
-0.0646434
-0.0439353
-0.0165419
0.0130203
0.0329325
0.0392821
-0.0602331
-0.0579559
-0.0548655
-0.0512118
-0.0494255
-0.0501766
-0.0535183
-0.0590914
-0.0662176
-0.0739163
-0.080877
-0.0854511
-0.0857049
-0.0795181
-0.0649404
-0.04061
-0.00697769
0.0328179
0.0647949
0.0836779
-0.0774796
-0.0694716
-0.0620859
-0.054548
-0.0501375
-0.0493235
-0.0519026
-0.057259
-0.064484
-0.0723827
-0.0794377
-0.0837763
-0.0832166
-0.0752815
-0.0576202
-0.0282103
0.0133533
0.0666618
0.115753
0.154808
-0.108924
-0.0850386
-0.0697721
-0.0563904
-0.0485399
-0.0458798
-0.0476227
-0.0527132
-0.0599152
-0.0677749
-0.0745503
-0.0781381
-0.0761027
-0.0655412
-0.0436422
-0.0074443
0.0447437
0.114933
0.188079
0.263281
-0.168692
-0.100744
-0.073092
-0.0522872
-0.0413092
-0.0376985
-0.0394406
-0.0448638
-0.0524139
-0.0604449
-0.0670719
-0.070046
-0.0666859
-0.0537871
-0.0278888
0.0154106
0.0800722
0.172761
0.285855
0.445986
-0.402753
-0.13903
-0.0734581
-0.0447292
-0.0305709
-0.0266165
-0.0290843
-0.0353719
-0.0436523
-0.0522055
-0.0591221
-0.0621437
-0.0586159
-0.0452127
-0.0174498
0.0310795
0.108496
0.236657
0.427488
0.79368
)
;

boundaryField
{
    movingWall
    {
        type            zeroGradient;
    }
    fixedWalls
    {
        type            zeroGradient;
    }
    frontAndBack
    {
        type            empty;
    }
}


// ************************************************************************* //
