/*--------------------------------*- C++ -*----------------------------------*\
  =========                 |
  \\      /  F ield         | OpenFOAM: The Open Source CFD Toolbox
   \\    /   O peration     | Website:  https://openfoam.org
    \\  /    A nd           | Version:  13
     \\/     M anipulation  |
\*---------------------------------------------------------------------------*/
FoamFile
{
    format      ascii;
    class       surfaceScalarField;
    location    "24";
    object      phi;
}
// * * * * * * * * * * * * * * * * * * * * * * * * * * * * * * * * * * * * * //

dimensions      [0 3 -1 0 0 0 0];

internalField   nonuniform List<scalar> 
760
(
4.3911e-06
-4.40173e-06
-3.89754e-05
4.33665e-05
-0.000131156
9.21805e-05
-0.000256584
0.000125428
-0.000399483
0.000142899
-0.000546395
0.000146913
-0.000685383
0.000138987
-0.000804678
0.000119296
-0.000892124
8.74456e-05
-0.000935872
4.37478e-05
-0.000926218
-9.65386e-06
-0.000858546
-6.76717e-05
-0.000735916
-0.00012263
-0.000571076
-0.000164839
-0.000386247
-0.000184829
-0.000210071
-0.000176176
-7.16542e-05
-0.000138417
7.52836e-06
-7.91826e-05
2.35957e-05
-1.60674e-05
2.35957e-05
-4.70772e-05
4.26755e-05
-0.000209998
0.000206287
-0.000473781
0.000355963
-0.000806004
0.000457652
-0.00117276
0.000509652
-0.00154257
0.00051673
-0.00188596
0.000482375
-0.00217405
0.000407385
-0.00237853
0.000291928
-0.00247371
0.000138923
-0.00244061
-4.27484e-05
-0.00227168
-0.000236606
-0.00197634
-0.000417966
-0.00158355
-0.00055763
-0.00114109
-0.000627295
-0.000709503
-0.000607762
-0.00035041
-0.000497509
-0.000110604
-0.000318988
-5.66982e-06
-0.000121002
1.79258e-05
-0.00011145
0.000154125
-0.000405313
0.000500151
-0.000834733
0.000785382
-0.00135034
0.000973263
-0.00190525
0.00106456
-0.002456
0.00106747
-0.00296128
0.00098766
-0.00338084
0.000826941
-0.00367599
0.000587082
-0.00381257
0.0002755
-0.00376582
-8.94956e-05
-0.00352632
-0.000476107
-0.00310592
-0.000838369
-0.00254154
-0.001122
-0.00189512
-0.00127372
-0.00124727
-0.00125561
-0.000683467
-0.00106131
-0.000273873
-0.000728582
-5.21077e-05
-0.000342767
-3.41819e-05
-0.000173171
0.000327296
-0.000593696
0.000920676
-0.00117944
0.00137113
-0.00186208
0.0016559
-0.00258336
0.00178584
-0.0032915
0.00177561
-0.00393789
0.00163406
-0.00447531
0.00136435
-0.00485839
0.000970163
-0.00504663
0.000463748
-0.00500939
-0.000126741
-0.00473201
-0.000753487
-0.00422287
-0.0013475
-0.00351912
-0.00182575
-0.00268941
-0.00210343
-0.00183009
-0.00211493
-0.00105162
-0.00183979
-0.000454573
-0.00132562
-0.000101959
-0.000695381
-0.00013614
-0.000228298
0.000555594
-0.000763684
0.00145606
-0.00149116
0.0020986
-0.00232409
0.00248883
-0.00319449
0.00265624
-0.00404512
0.00262624
-0.00482352
0.00241246
-0.00547886
0.00201969
-0.00596149
0.00145279
-0.00622512
0.000727372
-0.00623127
-0.00012059
-0.00595524
-0.00102952
-0.00539477
-0.00190797
-0.00457888
-0.00264164
-0.00357581
-0.00310651
-0.00249487
-0.00319587
-0.00147577
-0.00285889
-0.000660959
-0.00214043
-0.000156595
-0.00119974
-0.000292735
-0.000274783
0.000830376
-0.000908201
0.00208948
-0.00175761
0.00294801
-0.00272081
0.00345203
-0.00372238
0.00365781
-0.00470225
0.00360611
-0.00560718
0.00331739
-0.00638555
0.00279806
-0.00698537
0.00205261
-0.00735484
0.00109684
-0.00744584
-2.95825e-05
-0.00721858
-0.00125678
-0.00665291
-0.00247364
-0.00576016
-0.00353439
-0.00459869
-0.00426799
-0.00328504
-0.00450952
-0.00199093
-0.004153
-0.000914121
-0.00321724
-0.000223256
-0.00189061
-0.000515991
-0.000310703
0.00114108
-0.00102086
0.00279964
-0.00196689
0.00389404
-0.00303484
0.00451998
-0.0041446
0.00476756
-0.00523592
0.00469743
-0.00625758
0.00433905
-0.00716007
0.00370055
-0.00789144
0.00278398
-0.00839581
0.00160121
-0.00861397
0.000188576
-0.00848973
-0.00138102
-0.00797769
-0.00298568
-0.0070614
-0.00445068
-0.00577613
-0.00555326
-0.00423334
-0.00605231
-0.00263275
-0.00575358
-0.0012395
-0.00461049
-0.0003114
-0.00281872
-0.000827391
-0.000334146
0.00147523
-0.00109552
0.00356101
-0.00210694
0.00490546
-0.00324684
0.00565989
-0.00443308
0.00595381
-0.00560775
0.0058721
-0.00672441
0.00545572
-0.0077388
0.00471494
-0.00860235
0.00364754
-0.00925821
0.00225706
-0.00963954
0.000569913
-0.00967246
-0.0013481
-0.00928418
-0.00337397
-0.00842111
-0.00531374
-0.00707911
-0.00689525
-0.00534349
-0.00778793
-0.00342556
-0.00767151
-0.00166168
-0.00637437
-0.000431574
-0.00404882
-0.00125896
-0.000343858
0.00181908
-0.00112765
0.0043448
-0.00216772
0.00594554
-0.0033385
0.00683066
-0.00455818
0.00717349
-0.00577334
0.00708726
-0.00694502
0.0066274
-0.00803766
0.00580758
-0.00901058
0.00462046
-0.00981149
0.00305797
-0.0103718
0.00113024
-0.0106056
-0.00111432
-0.0104146
-0.00356496
-0.00970319
-0.00602516
-0.00841158
-0.00818686
-0.00657022
-0.00962929
-0.00436857
-0.00987316
-0.00219921
-0.00854373
-0.000595124
-0.0056529
-0.00185409
-0.000340394
0.00215948
-0.0011171
0.0051215
-0.00214536
0.0069738
-0.00329817
0.00798347
-0.00449599
0.00837131
-0.00569186
0.00828313
-0.00685679
0.00779233
-0.00796755
0.00691833
-0.00899659
0.0056495
-0.00990346
0.00396484
-0.0106272
0.001854
-0.0110799
-0.000661646
-0.0111478
-0.00349708
-0.0106958
-0.00647715
-0.00959823
-0.00928441
-0.00780005
-0.0114275
-0.00541861
-0.0122546
-0.00285703
-0.0111053
-0.000813795
-0.00769614
-0.00266788
-0.000327668
0.00248715
-0.00107161
0.00586544
-0.00204751
0.00794971
-0.00312808
0.00906403
-0.00423798
0.00948122
-0.00533892
0.00938406
-0.00641443
0.00886784
-0.00745702
0.00796093
-0.00845738
0.00664986
-0.00939457
0.00490203
-0.0102266
0.00268606
-0.0108749
-1.34212e-05
-0.0112316
-0.00314032
-0.0111328
-0.00657595
-0.01039
-0.0100272
-0.00884064
-0.0129769
-0.00647166
-0.0146236
-0.00361421
-0.0139628
-0.0010982
-0.0102121
-0.00376608
-0.00031501
0.00280216
-0.00101103
0.00656146
-0.00189907
0.00883774
-0.00285142
0.0100164
-0.00380002
0.0104298
-0.00471871
0.0103027
-0.0056066
0.00975573
-0.00647486
0.00882919
-0.00733614
0.00751113
-0.00819488
0.00576078
-0.00903631
0.0035275
-0.00981825
0.000768516
-0.0104386
-0.00252002
-0.0107416
-0.00627287
-0.0104957
-0.0102732
-0.00942919
-0.0140433
-0.0073503
-0.0167025
-0.00440754
-0.0169055
-0.00145377
-0.0131659
-0.00521985
-0.000320159
0.00312231
-0.000972044
0.00721335
-0.00174706
0.00961276
-0.00251688
0.0107862
-0.00322716
0.0111401
-0.00387027
0.0109459
-0.00446531
0.0103508
-0.00504473
0.00940861
-0.005645
0.0081114
-0.00629859
0.00641437
-0.00702469
0.0042536
-0.00781672
0.00156054
-0.00861895
-0.00171778
-0.00930335
-0.00558847
-0.00963543
-0.0099411
-0.00926558
-0.0144132
-0.00780703
-0.018161
-0.00511449
-0.0195981
-0.00187244
-0.016408
-0.00709229
-0.000374082
0.0034964
-0.00101327
0.00785253
-0.0016625
0.010262
-0.00219641
0.0113201
-0.00258776
0.0115315
-0.00285874
0.0112168
-0.00305497
0.010547
-0.00323248
0.00958613
-0.00345111
0.00833002
-0.00376963
0.00673289
-0.00423998
0.00472395
-0.00489737
0.00221793
-0.00574112
-0.000874032
-0.0067036
-0.00462599
-0.00759867
-0.00904603
-0.00806167
-0.0139502
-0.0075468
-0.0186759
-0.00554239
-0.0216025
-0.00231876
-0.0196316
-0.00941104
-0.000529461
0.00402586
-0.00121875
0.00854183
-0.00173236
0.0107756
-0.00196527
0.011553
-0.00194345
0.0115096
-0.0017368
0.0110102
-0.00142624
0.0102364
-0.00109351
0.0092534
-0.000819393
0.00805591
-0.00068393
0.00659743
-0.000765437
0.00480546
-0.00113649
0.00258899
-0.00185267
-0.000157852
-0.00292511
-0.00355354
-0.00426467
-0.00770648
-0.00557769
-0.0126372
-0.0062553
-0.0179983
-0.0054259
-0.0224319
-0.00270918
-0.0223483
-0.0121202
-0.000868748
0.00489461
-0.0016842
0.00935727
-0.00201359
0.011105
-0.0018275
0.011367
-0.0012527
0.0109348
-0.000432279
0.0101898
0.000508017
0.00929614
0.00146062
0.0083008
0.0023283
0.00718822
0.00301723
0.0059085
0.00343176
0.00439093
0.00347237
0.00254838
0.00303745
0.00027707
0.00203934
-0.00255543
0.000444026
-0.00611117
-0.00161006
-0.0105831
-0.00360101
-0.0160073
-0.00441538
-0.0216175
-0.00288085
-0.0238829
-0.0150011
-0.00149475
0.00638936
-0.00241126
0.0102738
-0.00233103
0.0110248
-0.00145116
0.0104871
-7.62924e-05
0.00955995
0.0015531
0.00856037
0.0032665
0.00758274
0.00493938
0.00662792
0.00646996
0.00565764
0.00776274
0.00461573
0.00871759
0.00343608
0.00922245
0.00204352
0.00914713
0.000352394
0.00834951
-0.00175782
0.00668339
-0.00444505
0.00408863
-0.00798831
0.000840694
-0.0127594
-0.0020052
-0.0187716
-0.00250293
-0.0233851
-0.017504
-0.00234101
0.00873037
-0.00281992
0.0107527
-0.00158544
0.00979027
0.000573791
0.00832785
0.00312119
0.00701256
0.00575781
0.00592375
0.00831736
0.00502318
0.0106988
0.0042465
0.012826
0.0035304
0.014625
0.00281669
0.0160106
0.00205053
0.0168769
0.00117724
0.0170877
0.00014153
0.0164809
-0.00115093
0.0148418
-0.00280601
0.0119354
-0.00508185
0.00764976
-0.0084738
0.00261198
-0.0137338
-0.00090854
-0.0198646
-0.0184125
-0.00200263
0.010733
0.000357662
0.0083924
0.00431898
0.00582895
0.00833384
0.004313
0.0120917
0.00325467
0.015494
0.00252148
0.018518
0.00199915
0.0211645
0.00160008
0.0234281
0.0012668
0.0252851
0.000959617
0.0266875
0.00064821
0.0275563
0.000308425
0.0277822
-8.44176e-05
0.0272131
-0.000581865
0.0256275
-0.00122032
0.0226957
-0.00215009
0.0179511
-0.00372918
0.01095
-0.00673275
0.00302462
-0.0119392
-0.0153879
0.010733
0.0191254
0.0249544
0.0292674
0.032522
0.0350435
0.0370426
0.0386427
0.0399095
0.0408691
0.0415174
0.0418258
0.0417414
0.0411595
0.0399392
0.0377891
0.0340599
0.0273272
0.0153879
)
;

boundaryField
{
    movingWall
    {
        type            calculated;
        value           uniform 0;
    }
    fixedWalls
    {
        type            calculated;
        value           uniform 0;
    }
    frontAndBack
    {
        type            empty;
    }
}


// ************************************************************************* //
