/*--------------------------------*- C++ -*----------------------------------*\
  =========                 |
  \\      /  F ield         | OpenFOAM: The Open Source CFD Toolbox
   \\    /   O peration     | Website:  https://openfoam.org
    \\  /    A nd           | Version:  13
     \\/     M anipulation  |
\*---------------------------------------------------------------------------*/
FoamFile
{
    format      ascii;
    class       volVectorField;
    location    "24";
    object      U_0;
}
// * * * * * * * * * * * * * * * * * * * * * * * * * * * * * * * * * * * * * //

dimensions      [0 1 -1 0 0 0 0];

internalField   nonuniform List<vector> 
400
(
(0.000213575 -0.000214074 0)
(-9.36281e-05 -1.49719e-05 0)
(-0.00151402 0.000202314 0)
(-0.00376284 0.000340559 0)
(-0.0065139 0.00041323 0)
(-0.00947178 0.000441465 0)
(-0.0123869 0.000435794 0)
(-0.0150261 0.000395716 0)
(-0.0171497 0.000314725 0)
(-0.0185112 0.000187266 0)
(-0.0188846 1.56945e-05 0)
(-0.018114 -0.00018699 0)
(-0.0161737 -0.000388835 0)
(-0.0132181 -0.000547961 0)
(-0.00960408 -0.000620144 0)
(-0.00586033 -0.000573148 0)
(-0.00259522 -0.000400824 0)
(-0.00034393 -0.000134399 0)
(0.000586183 0.0001438 0)
(0.000320269 0.000307099 0)
(2.35903e-06 9.09464e-05 0)
(-0.00201782 0.0018732 0)
(-0.00641666 0.00366735 0)
(-0.0125491 0.00490676 0)
(-0.0197005 0.00556116 0)
(-0.0272159 0.00570077 0)
(-0.0344914 0.00537589 0)
(-0.0409472 0.00459405 0)
(-0.0460065 0.00334651 0)
(-0.0491136 0.00165301 0)
(-0.0498 -0.000394533 0)
(-0.0477754 -0.00260583 0)
(-0.0430392 -0.00468771 0)
(-0.0359702 -0.00628321 0)
(-0.027351 -0.00704536 0)
(-0.0183061 -0.0067411 0)
(-0.0101237 -0.00535769 0)
(-0.00396725 -0.00318005 0)
(-0.000522426 -0.000840581 0)
(0.000244868 0.000614938 0)
(-0.000277829 0.00168042 0)
(-0.00439036 0.0064357 0)
(-0.0118372 0.0106167 0)
(-0.0215419 0.0134424 0)
(-0.0324733 0.0148696 0)
(-0.0437411 0.0150159 0)
(-0.054505 0.013969 0)
(-0.0639509 0.0117529 0)
(-0.0712804 0.00838299 0)
(-0.0757449 0.00395586 0)
(-0.0767283 -0.00126679 0)
(-0.0738601 -0.00680815 0)
(-0.0671408 -0.0119849 0)
(-0.0570492 -0.0159835 0)
(-0.044587 -0.0180189 0)
(-0.0312254 -0.0175547 0)
(-0.0187075 -0.0145408 0)
(-0.00869263 -0.0095892 0)
(-0.00231743 -0.00402873 0)
(8.96195e-05 6.80867e-05 0)
(-0.000532265 0.00454866 0)
(-0.00668677 0.0136266 0)
(-0.0170633 0.0208387 0)
(-0.0300814 0.0255188 0)
(-0.0443957 0.0277398 0)
(-0.0589416 0.0277107 0)
(-0.072728 0.0255693 0)
(-0.0847989 0.0213639 0)
(-0.094219 0.0151493 0)
(-0.100109 0.00712451 0)
(-0.101731 -0.00224381 0)
(-0.0985998 -0.0121508 0)
(-0.090623 -0.0214574 0)
(-0.0782347 -0.0288056 0)
(-0.0624917 -0.0328502 0)
(-0.0450809 -0.0326105 0)
(-0.028159 -0.0278778 0)
(-0.013963 -0.0195452 0)
(-0.00428207 -0.00969301 0)
(-3.65357e-05 -0.00145199 0)
(-0.000750704 0.00859776 0)
(-0.00874825 0.0232559 0)
(-0.0217904 0.0340562 0)
(-0.0378032 0.0407643 0)
(-0.0551488 0.0437407 0)
(-0.0726345 0.0433632 0)
(-0.0891851 0.0398475 0)
(-0.103775 0.0332725 0)
(-0.115395 0.0237292 0)
(-0.123067 0.011508 0)
(-0.125919 -0.00273704 0)
(-0.123286 -0.0178875 0)
(-0.114857 -0.0323401 0)
(-0.100859 -0.0441298 0)
(-0.0822353 -0.0512099 0)
(-0.0607731 -0.0519342 0)
(-0.0390483 -0.0456878 0)
(-0.0200409 -0.0334747 0)
(-0.00648004 -0.0181267 0)
(-0.000142566 -0.00399511 0)
(-0.000930493 0.0136719 0)
(-0.01049 0.0350351 0)
(-0.0258188 0.049934 0)
(-0.0444163 0.0588342 0)
(-0.0644013 0.0625556 0)
(-0.0845 0.0617366 0)
(-0.103612 0.0567082 0)
(-0.120705 0.0475827 0)
(-0.134745 0.0344632 0)
(-0.144684 0.0176828 0)
(-0.149502 -0.00198518 0)
(-0.148286 -0.0231674 0)
(-0.140382 -0.043846 0)
(-0.125636 -0.0614093 0)
(-0.104675 -0.0729441 0)
(-0.0792139 -0.0758264 0)
(-0.0521946 -0.0686303 0)
(-0.0275013 -0.0521352 0)
(-0.00917931 -0.029868 0)
(-0.000263174 -0.00771372 0)
(-0.00106573 0.0195786 0)
(-0.0118372 0.0485821 0)
(-0.0289672 0.0680233 0)
(-0.0496252 0.0792834 0)
(-0.0717518 0.0837945 0)
(-0.0940419 0.0825493 0)
(-0.115425 0.0760359 0)
(-0.134921 0.0643997 0)
(-0.151527 0.0477171 0)
(-0.164166 0.0262875 0)
(-0.171671 0.00089605 0)
(-0.172857 -0.0269615 0)
(-0.166648 -0.0549419 0)
(-0.152332 -0.0798063 0)
(-0.129979 -0.0976326 0)
(-0.10095 -0.104449 0)
(-0.0683485 -0.0974345 0)
(-0.037009 -0.0765458 0)
(-0.0127324 -0.0457715 0)
(-0.000442759 -0.0129366 0)
(-0.00114882 0.0260864 0)
(-0.0127184 0.0634268 0)
(-0.0310609 0.0877598 0)
(-0.0531221 0.101536 0)
(-0.0767331 0.106926 0)
(-0.100604 0.105367 0)
(-0.123746 0.097549 0)
(-0.145289 0.0836538 0)
(-0.16433 0.0636879 0)
(-0.179826 0.037827 0)
(-0.190538 0.00673312 0)
(-0.195033 -0.028155 0)
(-0.191786 -0.0643307 0)
(-0.179427 -0.0980472 0)
(-0.157211 -0.124327 0)
(-0.125751 -0.137507 0)
(-0.087875 -0.132632 0)
(-0.0491532 -0.107865 0)
(-0.0175292 -0.067013 0)
(-0.00073652 -0.0201968 0)
(-0.00117553 0.0329282 0)
(-0.0130866 0.0790188 0)
(-0.0319669 0.10846 0)
(-0.054638 0.124855 0)
(-0.0788813 0.131213 0)
(-0.103462 0.129498 0)
(-0.127519 0.120657 0)
(-0.150355 0.104921 0)
(-0.171243 0.0821964 0)
(-0.189277 0.0524523 0)
(-0.203261 0.0160842 0)
(-0.21164 -0.0257166 0)
(-0.212529 -0.0705337 0)
(-0.203887 -0.114368 0)
(-0.183964 -0.151325 0)
(-0.152175 -0.173865 0)
(-0.110385 -0.174139 0)
(-0.0642603 -0.147107 0)
(-0.0239719 -0.0950108 0)
(-0.00122032 -0.0302493 0)
(-0.00115256 0.0398244 0)
(-0.0129582 0.0947597 0)
(-0.0316624 0.12934 0)
(-0.0540381 0.148336 0)
(-0.0778631 0.155673 0)
(-0.101993 0.153922 0)
(-0.125736 0.144352 0)
(-0.148625 0.127281 0)
(-0.170196 0.10251 0)
(-0.189805 0.0697504 0)
(-0.206469 0.029015 0)
(-0.218705 -0.018953 0)
(-0.224491 -0.0721129 0)
(-0.221267 -0.126629 0)
(-0.206233 -0.176085 0)
(-0.177227 -0.211214 0)
(-0.134322 -0.220723 0)
(-0.082121 -0.194666 0)
(-0.0324332 -0.131234 0)
(-0.00200755 -0.0440868 0)
(-0.0011079 0.0465328 0)
(-0.0124662 0.110072 0)
(-0.0303248 0.149569 0)
(-0.0514473 0.170934 0)
(-0.0736405 0.179082 0)
(-0.0958906 0.177275 0)
(-0.117722 0.167183 0)
(-0.138955 0.149265 0)
(-0.159469 0.123254 0)
(-0.179007 0.0886019 0)
(-0.196983 0.0448907 0)
(-0.212217 -0.00772397 0)
(-0.222892 -0.068012 0)
(-0.226271 -0.13266 0)
(-0.218692 -0.195425 0)
(-0.196297 -0.245948 0)
(-0.156607 -0.269501 0)
(-0.10161 -0.249649 0)
(-0.043149 -0.176835 0)
(-0.00327174 -0.0629396 0)
(-0.00110593 0.0529335 0)
(-0.0119266 0.124513 0)
(-0.028432 0.168361 0)
(-0.0473765 0.191529 0)
(-0.0666273 0.200028 0)
(-0.0853758 0.197908 0)
(-0.103428 0.187313 0)
(-0.120946 0.168915 0)
(-0.138215 0.14244 0)
(-0.15545 0.107134 0)
(-0.172595 0.0621554 0)
(-0.18915 0.00698905 0)
(-0.203738 -0.0580723 0)
(-0.213828 -0.13084 0)
(-0.215539 -0.206075 0)
(-0.203582 -0.273454 0)
(-0.172567 -0.315697 0)
(-0.120279 -0.30913 0)
(-0.0559912 -0.23203 0)
(-0.00526759 -0.0882254 0)
(-0.00127374 0.0591632 0)
(-0.0119279 0.137927 0)
(-0.0268621 0.185086 0)
(-0.0428156 0.209007 0)
(-0.0577783 0.216997 0)
(-0.0712962 0.213993 0)
(-0.0835668 0.202672 0)
(-0.0951624 0.183973 0)
(-0.106813 0.157684 0)
(-0.119244 0.122927 0)
(-0.133014 0.0785206 0)
(-0.148326 0.023318 0)
(-0.164648 -0.0432924 0)
(-0.180269 -0.120714 0)
(-0.191691 -0.205518 0)
(-0.193025 -0.28891 0)
(-0.176329 -0.352958 0)
(-0.134117 -0.367621 0)
(-0.070081 -0.29523 0)
(-0.00832731 -0.121381 0)
(-0.00184966 0.0658215 0)
(-0.0134582 0.150624 0)
(-0.0269715 0.199362 0)
(-0.0392301 0.222305 0)
(-0.048504 0.228424 0)
(-0.0549791 0.22363 0)
(-0.0594238 0.21113 0)
(-0.0629035 0.192126 0)
(-0.0666035 0.166503 0)
(-0.0717309 0.133342 0)
(-0.0794209 0.0912625 0)
(-0.0906009 0.0386673 0)
(-0.105712 -0.0259456 0)
(-0.12424 -0.103481 0)
(-0.143911 -0.192899 0)
(-0.159455 -0.288462 0)
(-0.161629 -0.374329 0)
(-0.137665 -0.417155 0)
(-0.0832646 -0.362084 0)
(-0.0127832 -0.163495 0)
(-0.00328659 0.0743323 0)
(-0.0180832 0.163584 0)
(-0.0305606 0.21108 0)
(-0.0382784 0.230369 0)
(-0.0401645 0.232668 0)
(-0.0375389 0.224873 0)
(-0.0319994 0.210588 0)
(-0.0252014 0.191168 0)
(-0.018773 0.166549 0)
(-0.0143204 0.135813 0)
(-0.0134338 0.0975032 0)
(-0.017648 0.0497987 0)
(-0.0283102 -0.00935038 0)
(-0.0462327 -0.0820377 0)
(-0.0709763 -0.169595 0)
(-0.0992382 -0.27038 0)
(-0.12259 -0.373683 0)
(-0.124374 -0.448103 0)
(-0.0915505 -0.424658 0)
(-0.0187138 -0.214585 0)
(-0.00636401 0.0873954 0)
(-0.0280128 0.178257 0)
(-0.0392828 0.219867 0)
(-0.04058 0.231588 0)
(-0.0323279 0.22756 0)
(-0.0177645 0.215416 0)
(0.000371599 0.198794 0)
(0.0197598 0.178928 0)
(0.0383859 0.155669 0)
(0.0543723 0.128075 0)
(0.065846 0.0947017 0)
(0.0708725 0.053726 0)
(0.067418 0.00296016 0)
(0.0535246 -0.0602705 0)
(0.0276614 -0.138975 0)
(-0.00977339 -0.23563 0)
(-0.053768 -0.347023 0)
(-0.0866171 -0.450323 0)
(-0.0885206 -0.47085 0)
(-0.0253077 -0.272264 0)
(-0.0125248 0.110609 0)
(-0.0452202 0.196707 0)
(-0.051453 0.224538 0)
(-0.040875 0.223119 0)
(-0.0170368 0.209831 0)
(0.0139303 0.192194 0)
(0.048017 0.173106 0)
(0.0823815 0.153191 0)
(0.114849 0.131969 0)
(0.143512 0.108393 0)
(0.166458 0.0810829 0)
(0.181617 0.0483832 0)
(0.186568 0.00832128 0)
(0.17864 -0.0416942 0)
(0.154757 -0.105194 0)
(0.112461 -0.187488 0)
(0.0512026 -0.293355 0)
(-0.014316 -0.414487 0)
(-0.0643342 -0.485122 0)
(-0.0295905 -0.330461 0)
(-0.0216115 0.148418 0)
(-0.065229 0.213122 0)
(-0.0493941 0.215068 0)
(-0.0130324 0.195089 0)
(0.0358869 0.171613 0)
(0.0887339 0.149602 0)
(0.141274 0.129845 0)
(0.191063 0.111755 0)
(0.236468 0.0943078 0)
(0.276069 0.0763376 0)
(0.308325 0.0566071 0)
(0.331395 0.033786 0)
(0.342842 0.00634742 0)
(0.339856 -0.0276621 0)
(0.318523 -0.0712364 0)
(0.27466 -0.130265 0)
(0.202174 -0.214989 0)
(0.107942 -0.334974 0)
(-0.00320503 -0.451462 0)
(-0.0232652 -0.378735 0)
(-0.0274723 0.229336 0)
(-0.0364933 0.22312 0)
(0.0465602 0.176951 0)
(0.127046 0.138741 0)
(0.2056 0.109501 0)
(0.277487 0.0878761 0)
(0.341789 0.0715782 0)
(0.398482 0.0585819 0)
(0.447619 0.0473868 0)
(0.488957 0.0368461 0)
(0.521797 0.0260105 0)
(0.544925 0.0140231 0)
(0.556398 5.42472e-06 0)
(0.553889 -0.0170369 0)
(0.533365 -0.039088 0)
(0.490589 -0.0704557 0)
(0.415322 -0.120934 0)
(0.304905 -0.213375 0)
(0.125881 -0.348318 0)
(0.023668 -0.37879 0)
(0.21444 0.135797 0)
(0.285137 0.0984496 0)
(0.444655 0.0569153 0)
(0.547913 0.036584 0)
(0.621662 0.0241691 0)
(0.678249 0.0163207 0)
(0.722823 0.011336 0)
(0.758414 0.00800681 0)
(0.786854 0.00557321 0)
(0.809037 0.00357112 0)
(0.825149 0.00169396 0)
(0.834864 -0.00027149 0)
(0.837314 -0.00250677 0)
(0.83119 -0.00505121 0)
(0.813548 -0.00850246 0)
(0.781941 -0.0135056 0)
(0.72408 -0.0231768 0)
(0.635276 -0.0406015 0)
(0.43131 -0.0912947 0)
(0.270899 -0.153523 0)
)
;

boundaryField
{
    movingWall
    {
        type            calculated;
        value           uniform (1 0 0);
    }
    fixedWalls
    {
        type            calculated;
        value           uniform (0 0 0);
    }
    frontAndBack
    {
        type            empty;
    }
}


// ************************************************************************* //
