/*--------------------------------*- C++ -*----------------------------------*\
  =========                 |
  \\      /  F ield         | OpenFOAM: The Open Source CFD Toolbox
   \\    /   O peration     | Website:  https://openfoam.org
    \\  /    A nd           | Version:  13
     \\/     M anipulation  |
\*---------------------------------------------------------------------------*/
FoamFile
{
    format      ascii;
    class       volScalarField;
    location    "27";
    object      p;
}
// * * * * * * * * * * * * * * * * * * * * * * * * * * * * * * * * * * * * * //

dimensions      [0 2 -2 0 0 0 0];

internalField   nonuniform List<scalar> 
400
(
6.47556e-07
-0.000571805
-0.0012154
-0.00171825
-0.00195856
-0.00188404
-0.00146983
-0.000704885
0.000401944
0.00180661
0.00341534
0.00507566
0.00659169
0.00775174
0.00838044
0.00839628
0.007856
0.00696958
0.00604871
0.00549504
0.000570554
-1.96976e-05
-0.000569079
-0.00095644
-0.0011314
-0.00106134
-0.000725334
-0.000108601
0.000789414
0.0019401
0.00327044
0.00466077
0.00594135
0.00693047
0.0074749
0.00750245
0.00705989
0.00631952
0.00554395
0.00497334
0.00124629
0.000493584
-8.61104e-05
-0.000440763
-0.000605547
-0.000575675
-0.000336646
0.000133232
0.000850341
0.00180754
0.00295551
0.00419245
0.0053651
0.00629449
0.00681993
0.00685359
0.00642145
0.00566888
0.00480964
0.00403789
0.00174117
0.000764286
7.42705e-05
-0.000321329
-0.000536511
-0.00059212
-0.000477603
-0.000159514
0.000400686
0.00122276
0.00228236
0.00349355
0.0047024
0.00571042
0.00632009
0.00639886
0.00593423
0.00505129
0.00394913
0.00284516
0.00179606
0.000596321
-0.000227091
-0.000704204
-0.00101751
-0.0012066
-0.00125872
-0.00112234
-0.000729815
-2.71285e-05
0.000992466
0.00226432
0.0036308
0.00486198
0.00569941
0.00593306
0.00548114
0.00443623
0.00300068
0.00146284
0.00119531
-0.000202411
-0.00116266
-0.00175207
-0.00221076
-0.00259
-0.00286857
-0.00297049
-0.00279119
-0.00223218
-0.0012433
0.000151292
0.00179363
0.00342061
0.00469099
0.0052755
0.00497267
0.00380645
0.00197979
-0.000103266
-0.000240993
-0.00179945
-0.0028916
-0.00362155
-0.00427701
-0.00491592
-0.00550433
-0.00593677
-0.00606377
-0.00572763
-0.00480609
-0.00328435
-0.00126951
0.000947512
0.0029271
0.00417066
0.00428006
0.00313634
0.000903412
-0.00185544
-0.00265129
-0.00432567
-0.00554056
-0.00643857
-0.00734638
-0.00832696
-0.00933308
-0.0102279
-0.0108104
-0.0108496
-0.0101326
-0.0085381
-0.00610617
-0.00311138
-8.55675e-05
0.00225588
0.00321348
0.0023961
-0.000176543
-0.00375212
-0.00612066
-0.00786099
-0.009184
-0.010271
-0.0114822
-0.0128885
-0.0144335
-0.015952
-0.0171887
-0.0178267
-0.0175344
-0.0160418
-0.0132521
-0.00935656
-0.00493511
-0.000940526
0.00150894
0.00155543
-0.00113631
-0.00564594
-0.0106708
-0.0124229
-0.0138267
-0.0151012
-0.0166414
-0.0185349
-0.0207262
-0.0230295
-0.0251394
-0.0266481
-0.027083
-0.0259765
-0.0230332
-0.0182531
-0.0121668
-0.00592121
-0.0011414
0.000603887
-0.00173054
-0.00719428
-0.0162597
-0.0179645
-0.0193949
-0.0208053
-0.0226406
-0.0250224
-0.0279103
-0.0311104
-0.0342764
-0.0369128
-0.0383942
-0.0380056
-0.035283
-0.0298325
-0.0220041
-0.0130054
-0.0049589
-0.000374691
-0.00151517
-0.00771981
-0.0228021
-0.0243892
-0.0257418
-0.0271475
-0.0291426
-0.0319097
-0.0354414
-0.0395483
-0.0438538
-0.0477835
-0.0505788
-0.051376
-0.0491623
-0.0433929
-0.0339878
-0.0219767
-0.009805
-0.00102389
0.000280901
-0.00599915
-0.0302217
-0.0315854
-0.0326687
-0.0337911
-0.0356672
-0.0385789
-0.0425679
-0.0474539
-0.0528332
-0.0580615
-0.0622499
-0.0643095
-0.0630212
-0.0573309
-0.0466918
-0.031704
-0.0148002
-0.000416205
0.00496644
2.363e-05
-0.0385591
-0.0394886
-0.0399603
-0.040326
-0.041634
-0.0443086
-0.0484445
-0.0538583
-0.0601048
-0.0664643
-0.0719283
-0.0752204
-0.0748693
-0.0694204
-0.0578061
-0.0400012
-0.0180224
0.00328037
0.0146994
0.0135565
-0.0481739
-0.0481561
-0.0474026
-0.0462833
-0.0464112
-0.0483703
-0.0522805
-0.0579121
-0.0647383
-0.0719343
-0.0783596
-0.0825602
-0.0828312
-0.0773729
-0.0646444
-0.0439362
-0.0165427
0.0130196
0.0329318
0.0392815
-0.0602341
-0.0579568
-0.0548664
-0.0512126
-0.0494263
-0.0501775
-0.0535194
-0.0590927
-0.066219
-0.0739177
-0.0808784
-0.0854524
-0.085706
-0.079519
-0.0649412
-0.0406105
-0.00697818
0.0328175
0.0647944
0.0836775
-0.0774806
-0.0694724
-0.0620867
-0.0545487
-0.0501382
-0.0493243
-0.0519036
-0.0572601
-0.0644853
-0.072384
-0.079439
-0.0837775
-0.0832176
-0.0752822
-0.0576207
-0.0282106
0.013353
0.0666616
0.115753
0.154808
-0.108925
-0.0850393
-0.0697727
-0.0563909
-0.0485404
-0.0458804
-0.0476235
-0.0527142
-0.0599163
-0.0677761
-0.0745514
-0.0781392
-0.0761036
-0.0655419
-0.0436426
-0.0074445
0.0447437
0.114933
0.188079
0.263281
-0.168693
-0.100745
-0.0730925
-0.0522875
-0.0413096
-0.0376991
-0.0394413
-0.0448646
-0.0524149
-0.0604461
-0.0670731
-0.070047
-0.0666867
-0.0537877
-0.0278892
0.0154104
0.0800721
0.172761
0.285855
0.445986
-0.402753
-0.13903
-0.0734585
-0.0447296
-0.0305712
-0.0266169
-0.0290849
-0.0353727
-0.0436532
-0.0522065
-0.0591231
-0.0621447
-0.0586167
-0.0452133
-0.0174502
0.0310792
0.108496
0.236657
0.427488
0.79368
)
;

boundaryField
{
    movingWall
    {
        type            zeroGradient;
    }
    fixedWalls
    {
        type            zeroGradient;
    }
    frontAndBack
    {
        type            empty;
    }
}


// ************************************************************************* //
