/*--------------------------------*- C++ -*----------------------------------*\
  =========                 |
  \\      /  F ield         | OpenFOAM: The Open Source CFD Toolbox
   \\    /   O peration     | Website:  https://openfoam.org
    \\  /    A nd           | Version:  13
     \\/     M anipulation  |
\*---------------------------------------------------------------------------*/
FoamFile
{
    format      ascii;
    class       surfaceScalarField;
    location    "27";
    object      phi_0;
}
// * * * * * * * * * * * * * * * * * * * * * * * * * * * * * * * * * * * * * //

dimensions      [0 3 -1 0 0 0 0];

internalField   nonuniform List<scalar> 
760
(
4.39342e-06
-4.40056e-06
-3.89744e-05
4.33678e-05
-0.000131157
9.21828e-05
-0.000256589
0.000125432
-0.000399491
0.000142902
-0.000546407
0.000146916
-0.000685398
0.000138991
-0.000804697
0.000119299
-0.000892144
8.74475e-05
-0.000935893
4.37484e-05
-0.000926238
-9.65481e-06
-0.000858563
-6.76743e-05
-0.000735929
-0.000122634
-0.000571085
-0.000164844
-0.000386252
-0.000184834
-0.000210072
-0.00017618
-7.1653e-05
-0.000138419
7.53009e-06
-7.9183e-05
2.35967e-05
-1.60665e-05
2.35968e-05
-4.70773e-05
4.26768e-05
-0.000210002
0.000206293
-0.000473791
0.000355972
-0.000806024
0.000457664
-0.00117279
0.000509665
-0.00154261
0.000516743
-0.00188601
0.000482387
-0.0021741
0.000407394
-0.00237859
0.000291933
-0.00247377
0.000138924
-0.00244067
-4.27526e-05
-0.00227173
-0.000236615
-0.00197638
-0.000417979
-0.00158358
-0.000557645
-0.00114111
-0.00062731
-0.000709511
-0.000607775
-0.000350412
-0.000497518
-0.000110603
-0.000318992
-5.669e-06
-0.000121001
1.79278e-05
-0.000111453
0.000154129
-0.000405324
0.000500164
-0.000834755
0.000785404
-0.00135038
0.00097329
-0.00190531
0.00106459
-0.00245606
0.0010675
-0.00296136
0.000987684
-0.00338092
0.00082696
-0.00367608
0.000587093
-0.00381266
0.000275501
-0.00376591
-8.95049e-05
-0.0035264
-0.000476126
-0.00310598
-0.000838396
-0.00254159
-0.00112203
-0.00189515
-0.00127375
-0.00124729
-0.00125564
-0.000683475
-0.00106133
-0.000273875
-0.000728592
-5.21076e-05
-0.000342768
-3.41797e-05
-0.000173176
0.000327305
-0.000593714
0.000920702
-0.00117948
0.00137117
-0.00186213
0.00165595
-0.00258343
0.00178589
-0.00329159
0.00177566
-0.003938
0.0016341
-0.00447542
0.00136438
-0.00485851
0.000970179
-0.00504675
0.000463748
-0.0050095
-0.000126756
-0.00473211
-0.000753517
-0.00422296
-0.00134755
-0.00351919
-0.0018258
-0.00268945
-0.00210348
-0.00183012
-0.00211497
-0.00105163
-0.00183982
-0.000454579
-0.00132564
-0.000101959
-0.000695388
-0.000136139
-0.000228304
0.000555609
-0.000763707
0.0014561
-0.0014912
0.00209866
-0.00232415
0.0024889
-0.00319458
0.00265631
-0.00404522
0.0026263
-0.00482365
0.00241252
-0.005479
0.00201974
-0.00596163
0.00145281
-0.00622526
0.000727372
-0.0062314
-0.000120612
-0.00595536
-0.00102956
-0.00539488
-0.00190803
-0.00457897
-0.00264171
-0.00357587
-0.00310658
-0.00249491
-0.00319593
-0.00147579
-0.00285894
-0.000660969
-0.00214047
-0.000156597
-0.00119976
-0.000292736
-0.000274791
0.000830401
-0.000908228
0.00208954
-0.00175766
0.0029481
-0.00272089
0.00345212
-0.00372248
0.0036579
-0.00470237
0.0036062
-0.00560732
0.00331746
-0.0063857
0.00279811
-0.00698552
0.00205264
-0.00735499
0.00109684
-0.00744599
-2.96112e-05
-0.00721872
-0.00125683
-0.00665303
-0.00247372
-0.00576026
-0.00353448
-0.00459876
-0.00426808
-0.00328509
-0.0045096
-0.00199096
-0.00415307
-0.000914135
-0.00321729
-0.000223259
-0.00189064
-0.000515995
-0.000310712
0.00114111
-0.00102089
0.00279972
-0.00196694
0.00389415
-0.00303492
0.0045201
-0.0041447
0.00476768
-0.00523603
0.00469754
-0.00625771
0.00433914
-0.00716021
0.00370062
-0.00789159
0.00278402
-0.00839596
0.00160121
-0.00861412
0.000188543
-0.00848987
-0.00138108
-0.00797781
-0.00298577
-0.00706151
-0.00445078
-0.00577622
-0.00555337
-0.0042334
-0.00605242
-0.00263279
-0.00575368
-0.00123952
-0.00461056
-0.000311404
-0.00281875
-0.000827399
-0.000334154
0.00147527
-0.00109554
0.00356111
-0.00210698
0.00490559
-0.00324691
0.00566003
-0.00443317
0.00595394
-0.00560786
0.00587222
-0.00672454
0.00545582
-0.00773893
0.00471501
-0.00860249
0.00364757
-0.00925834
0.00225706
-0.00963968
0.000569876
-0.00967259
-0.00134817
-0.00928429
-0.00337407
-0.00842121
-0.00531386
-0.0070792
-0.00689539
-0.00534356
-0.00778807
-0.0034256
-0.00767163
-0.0016617
-0.00637446
-0.00043158
-0.00404887
-0.00125898
-0.000343864
0.00181913
-0.00112767
0.00434491
-0.00216776
0.00594568
-0.00333855
0.00683082
-0.00455825
0.00717364
-0.00577342
0.0070874
-0.00694511
0.00662751
-0.00803776
0.00580765
-0.00901069
0.0046205
-0.00981159
0.00305797
-0.0103719
0.0011302
-0.0106057
-0.00111439
-0.0104147
-0.00356506
-0.00970327
-0.00602528
-0.00841166
-0.008187
-0.00657028
-0.00962944
-0.00436861
-0.0098733
-0.00219923
-0.00854384
-0.000595131
-0.00565298
-0.00185411
-0.000340397
0.00215953
-0.00111711
0.00512162
-0.00214539
0.00697396
-0.0032982
0.00798364
-0.00449604
0.00837147
-0.00569191
0.00828327
-0.00685685
0.00779245
-0.00796761
0.00691841
-0.00899665
0.00564954
-0.00990352
0.00396484
-0.0106273
0.00185396
-0.01108
-0.000661719
-0.0111478
-0.00349718
-0.0106958
-0.00647728
-0.00959829
-0.00928456
-0.0078001
-0.0114276
-0.00541865
-0.0122547
-0.00285705
-0.0111054
-0.000813802
-0.00769622
-0.00266791
-0.000327668
0.0024872
-0.00107161
0.00586556
-0.00204751
0.00794986
-0.00312809
0.00906421
-0.004238
0.00948138
-0.00533893
0.00938421
-0.00641444
0.00886795
-0.00745703
0.007961
-0.00845739
0.0066499
-0.00939457
0.00490203
-0.0102266
0.00268602
-0.0108749
-1.34897e-05
-0.0112316
-0.00314043
-0.0111328
-0.00657607
-0.01039
-0.0100273
-0.00884067
-0.012977
-0.00647168
-0.0146237
-0.00361422
-0.0139629
-0.00109821
-0.0102122
-0.00376612
-0.000315006
0.0028022
-0.00101102
0.00656158
-0.00189906
0.0088379
-0.0028514
0.0100166
-0.0038
0.01043
-0.00471868
0.0103029
-0.00560657
0.00975584
-0.00647482
0.00882926
-0.00733609
0.00751116
-0.00819483
0.00576077
-0.00903626
0.00352745
-0.00981819
0.000768444
-0.0104385
-0.00252011
-0.0107416
-0.00627298
-0.0104956
-0.0102733
-0.00942919
-0.0140435
-0.0073503
-0.0167026
-0.00440755
-0.0169057
-0.00145377
-0.013166
-0.00521989
-0.000320152
0.00312235
-0.000972025
0.00721345
-0.00174703
0.0096129
-0.00251684
0.0107864
-0.00322711
0.0111403
-0.0038702
0.010946
-0.00446523
0.0103509
-0.00504464
0.00940867
-0.0056449
0.00811142
-0.00629849
0.00641435
-0.00702459
0.00425355
-0.00781661
0.00156047
-0.00861886
-0.00171786
-0.00930327
-0.00558857
-0.00963537
-0.0099412
-0.00926554
-0.0144133
-0.00780701
-0.0181611
-0.00511449
-0.0195982
-0.00187244
-0.0164081
-0.00709233
-0.000374073
0.00349643
-0.00101324
0.00785262
-0.00166245
0.0102621
-0.00219634
0.0113203
-0.00258767
0.0115316
-0.00285864
0.0112169
-0.00305485
0.0105471
-0.00323235
0.00958618
-0.00345097
0.00833004
-0.00376949
0.00673287
-0.00423984
0.0047239
-0.00489724
0.00221787
-0.00574099
-0.000874109
-0.00670349
-0.00462607
-0.00759858
-0.00904611
-0.00806161
-0.0139503
-0.00754676
-0.018676
-0.00554238
-0.0216026
-0.00231876
-0.0196317
-0.00941109
-0.00052945
0.00402588
-0.00121872
0.00854189
-0.00173229
0.0107757
-0.00196518
0.0115531
-0.00194334
0.0115097
-0.00173666
0.0110103
-0.00142609
0.0102365
-0.00109335
0.00925344
-0.000819232
0.00805592
-0.00068377
0.00659741
-0.000765281
0.00480542
-0.00113634
0.00258893
-0.00185253
-0.000157918
-0.00292499
-0.00355361
-0.00426456
-0.00770654
-0.0055776
-0.0126372
-0.00625525
-0.0179983
-0.00542587
-0.0224319
-0.00270917
-0.0223484
-0.0121203
-0.000868736
0.00489461
-0.00168416
0.00935731
-0.00201352
0.011105
-0.00182741
0.011367
-0.00125257
0.0109349
-0.000432132
0.0101898
0.000508179
0.00929619
0.00146078
0.00830083
0.00232847
0.00718823
0.00301739
0.00590849
0.00343192
0.00439089
0.00347251
0.00254833
0.00303758
0.000277016
0.00203945
-0.00255549
0.000444128
-0.00611122
-0.00160998
-0.0105831
-0.00360095
-0.0160074
-0.00441535
-0.0216175
-0.00288084
-0.0238829
-0.0150011
-0.00149474
0.00638936
-0.00241123
0.0102738
-0.00233097
0.0110248
-0.00145107
0.0104871
-7.6175e-05
0.00956001
0.00155324
0.00856042
0.00326666
0.00758278
0.00493954
0.00662795
0.00647013
0.00565764
0.0077629
0.00461572
0.00871774
0.00343605
0.00922258
0.00204349
0.00914724
0.000352356
0.00834961
-0.00175786
0.00668348
-0.00444508
0.0040887
-0.00798833
0.000840745
-0.0127594
-0.00200516
-0.0187716
-0.00250292
-0.0233851
-0.017504
-0.00234101
0.00873036
-0.0028199
0.0107527
-0.0015854
0.00979029
0.000573853
0.00832788
0.00312128
0.00701258
0.00575792
0.00592378
0.00831749
0.00502321
0.0106989
0.00424652
0.0128262
0.00353041
0.0146252
0.00281669
0.0160107
0.00205052
0.016877
0.00117722
0.0170878
0.000141509
0.0164809
-0.00115096
0.0148419
-0.00280603
0.0119354
-0.00508186
0.00764979
-0.00847381
0.002612
-0.0137338
-0.000908529
-0.0198646
-0.0184125
-0.00200263
0.010733
0.000357661
0.0083924
0.00431899
0.00582896
0.00833386
0.004313
0.0120918
0.00325468
0.0154941
0.00252149
0.0185181
0.00199916
0.0211645
0.00160008
0.0234282
0.0012668
0.0252852
0.000959615
0.0266875
0.000648205
0.0275563
0.000308418
0.0277823
-8.4426e-05
0.0272132
-0.000581872
0.0256275
-0.00122032
0.0226957
-0.00215009
0.0179511
-0.00372918
0.01095
-0.00673275
0.00302462
-0.0119392
-0.0153879
0.010733
0.0191254
0.0249544
0.0292674
0.032522
0.0350435
0.0370427
0.0386428
0.0399096
0.0408692
0.0415174
0.0418258
0.0417414
0.0411595
0.0399392
0.0377891
0.0340599
0.0273272
0.0153879
)
;

boundaryField
{
    movingWall
    {
        type            calculated;
        value           uniform 0;
    }
    fixedWalls
    {
        type            calculated;
        value           uniform 0;
    }
    frontAndBack
    {
        type            empty;
    }
}


// ************************************************************************* //
