/*--------------------------------*- C++ -*----------------------------------*\
  =========                 |
  \\      /  F ield         | OpenFOAM: The Open Source CFD Toolbox
   \\    /   O peration     | Website:  https://openfoam.org
    \\  /    A nd           | Version:  13
     \\/     M anipulation  |
\*---------------------------------------------------------------------------*/
FoamFile
{
    format      ascii;
    class       volVectorField;
    location    "27";
    object      U_0;
}
// * * * * * * * * * * * * * * * * * * * * * * * * * * * * * * * * * * * * * //

dimensions      [0 1 -1 0 0 0 0];

internalField   nonuniform List<vector> 
400
(
(0.000213607 -0.000214059 0)
(-9.35834e-05 -1.49662e-05 0)
(-0.00151402 0.000202319 0)
(-0.0037629 0.000340567 0)
(-0.00651403 0.00041324 0)
(-0.00947198 0.000441475 0)
(-0.0123872 0.000435804 0)
(-0.0150265 0.000395725 0)
(-0.0171501 0.000314733 0)
(-0.0185117 0.000187272 0)
(-0.018885 1.56946e-05 0)
(-0.0181144 -0.000186996 0)
(-0.016174 -0.000388846 0)
(-0.0132183 -0.000547975 0)
(-0.00960422 -0.000620158 0)
(-0.00586038 -0.000573159 0)
(-0.00259521 -0.000400827 0)
(-0.000343894 -0.000134395 0)
(0.000586214 0.00014381 0)
(0.000320278 0.000307109 0)
(2.37197e-06 9.09681e-05 0)
(-0.00201784 0.00187325 0)
(-0.00641679 0.00366744 0)
(-0.0125494 0.00490688 0)
(-0.019701 0.0055613 0)
(-0.0272166 0.00570092 0)
(-0.0344923 0.00537602 0)
(-0.0409483 0.00459416 0)
(-0.0460076 0.00334659 0)
(-0.0491148 0.00165303 0)
(-0.0498012 -0.000394573 0)
(-0.0477764 -0.00260593 0)
(-0.0430401 -0.00468786 0)
(-0.0359709 -0.00628339 0)
(-0.0273515 -0.00704553 0)
(-0.0183063 -0.00674124 0)
(-0.0101237 -0.00535778 0)
(-0.00396724 -0.00318008 0)
(-0.000522397 -0.000840556 0)
(0.000244878 0.000614971 0)
(-0.000277832 0.00168046 0)
(-0.00439047 0.00643587 0)
(-0.0118375 0.010617 0)
(-0.0215425 0.0134428 0)
(-0.0324742 0.01487 0)
(-0.0437423 0.0150163 0)
(-0.0545065 0.0139694 0)
(-0.0639526 0.0117532 0)
(-0.0712823 0.00838315 0)
(-0.0757468 0.00395589 0)
(-0.0767301 -0.00126691 0)
(-0.0738618 -0.00680842 0)
(-0.0671423 -0.0119852 0)
(-0.0570504 -0.015984 0)
(-0.0445878 -0.0180193 0)
(-0.0312259 -0.017555 0)
(-0.0187077 -0.0145411 0)
(-0.00869272 -0.00958932 0)
(-0.00231744 -0.00402872 0)
(8.96266e-05 6.81323e-05 0)
(-0.00053228 0.00454877 0)
(-0.00668696 0.0136269 0)
(-0.0170638 0.0208393 0)
(-0.0300822 0.0255195 0)
(-0.0443969 0.0277406 0)
(-0.0589432 0.0277115 0)
(-0.07273 0.02557 0)
(-0.0848012 0.0213643 0)
(-0.0942214 0.0151495 0)
(-0.100112 0.00712453 0)
(-0.101733 -0.00224405 0)
(-0.0986021 -0.0121513 0)
(-0.0906249 -0.0214581 0)
(-0.0782363 -0.0288064 0)
(-0.0624929 -0.032851 0)
(-0.0450816 -0.0326112 0)
(-0.0281595 -0.0278783 0)
(-0.0139632 -0.0195455 0)
(-0.00428211 -0.00969308 0)
(-3.65316e-05 -0.00145195 0)
(-0.000750726 0.008598 0)
(-0.00874851 0.0232565 0)
(-0.0217911 0.0340572 0)
(-0.0378043 0.0407654 0)
(-0.0551504 0.0437419 0)
(-0.0726365 0.0433643 0)
(-0.0891875 0.0398484 0)
(-0.103778 0.0332732 0)
(-0.115398 0.0237296 0)
(-0.12307 0.011508 0)
(-0.125922 -0.00273742 0)
(-0.123288 -0.0178883 0)
(-0.114859 -0.0323411 0)
(-0.100861 -0.044131 0)
(-0.0822368 -0.0512112 0)
(-0.0607742 -0.0519353 0)
(-0.039049 -0.0456886 0)
(-0.0200412 -0.0334752 0)
(-0.00648013 -0.0181269 0)
(-0.000142565 -0.0039951 0)
(-0.000930521 0.0136723 0)
(-0.0104903 0.0350361 0)
(-0.0258196 0.0499354 0)
(-0.0444175 0.0588358 0)
(-0.064403 0.0625572 0)
(-0.0845022 0.0617381 0)
(-0.103615 0.0567094 0)
(-0.120708 0.0475836 0)
(-0.134748 0.0344637 0)
(-0.144687 0.0176828 0)
(-0.149505 -0.00198569 0)
(-0.148288 -0.0231684 0)
(-0.140384 -0.0438474 0)
(-0.125638 -0.0614109 0)
(-0.104677 -0.0729458 0)
(-0.0792152 -0.075828 0)
(-0.0521955 -0.0686316 0)
(-0.0275017 -0.052136 0)
(-0.00917944 -0.0298684 0)
(-0.000263177 -0.00771376 0)
(-0.00106576 0.0195792 0)
(-0.0118375 0.0485835 0)
(-0.028968 0.0680252 0)
(-0.0496265 0.0792855 0)
(-0.0717536 0.0837966 0)
(-0.0940441 0.0825512 0)
(-0.115428 0.0760375 0)
(-0.134924 0.0644009 0)
(-0.15153 0.0477177 0)
(-0.164169 0.0262874 0)
(-0.171674 0.000895424 0)
(-0.17286 -0.0269627 0)
(-0.166651 -0.0549436 0)
(-0.152335 -0.0798083 0)
(-0.129981 -0.0976347 0)
(-0.100952 -0.104451 0)
(-0.0683495 -0.0974362 0)
(-0.0370095 -0.076547 0)
(-0.0127326 -0.0457721 0)
(-0.000442766 -0.0129367 0)
(-0.00114885 0.0260871 0)
(-0.0127187 0.0634285 0)
(-0.0310616 0.0877622 0)
(-0.0531233 0.101538 0)
(-0.0767347 0.106929 0)
(-0.100606 0.105369 0)
(-0.123748 0.097551 0)
(-0.145292 0.0836552 0)
(-0.164332 0.0636886 0)
(-0.179829 0.037827 0)
(-0.19054 0.00673241 0)
(-0.195035 -0.0281564 0)
(-0.191789 -0.0643326 0)
(-0.179429 -0.0980495 0)
(-0.157213 -0.12433 0)
(-0.125753 -0.137509 0)
(-0.087876 -0.132634 0)
(-0.0491538 -0.107866 0)
(-0.0175294 -0.0670139 0)
(-0.000736533 -0.020197 0)
(-0.00117555 0.0329291 0)
(-0.0130868 0.0790208 0)
(-0.0319675 0.108463 0)
(-0.0546389 0.124858 0)
(-0.0788826 0.131216 0)
(-0.103464 0.129501 0)
(-0.127521 0.120659 0)
(-0.150357 0.104922 0)
(-0.171245 0.0821972 0)
(-0.189279 0.0524523 0)
(-0.203263 0.0160834 0)
(-0.211642 -0.0257181 0)
(-0.212531 -0.0705358 0)
(-0.203889 -0.11437 0)
(-0.183966 -0.151328 0)
(-0.152177 -0.173868 0)
(-0.110386 -0.174142 0)
(-0.064261 -0.147109 0)
(-0.0239721 -0.095012 0)
(-0.00122033 -0.0302497 0)
(-0.00115257 0.0398254 0)
(-0.0129584 0.094762 0)
(-0.0316627 0.129343 0)
(-0.0540387 0.148339 0)
(-0.077864 0.155676 0)
(-0.101994 0.153925 0)
(-0.125737 0.144354 0)
(-0.148626 0.127282 0)
(-0.170197 0.102511 0)
(-0.189806 0.0697504 0)
(-0.20647 0.0290142 0)
(-0.218707 -0.0189545 0)
(-0.224492 -0.072115 0)
(-0.221268 -0.126632 0)
(-0.206234 -0.176088 0)
(-0.177228 -0.211217 0)
(-0.134323 -0.220726 0)
(-0.0821216 -0.194669 0)
(-0.0324334 -0.131236 0)
(-0.00200758 -0.0440873 0)
(-0.0011079 0.0465338 0)
(-0.0124662 0.110075 0)
(-0.0303248 0.149573 0)
(-0.0514475 0.170938 0)
(-0.0736407 0.179085 0)
(-0.0958909 0.177278 0)
(-0.117723 0.167186 0)
(-0.138955 0.149267 0)
(-0.159469 0.123255 0)
(-0.179007 0.0886018 0)
(-0.196983 0.0448899 0)
(-0.212217 -0.00772554 0)
(-0.222892 -0.0680141 0)
(-0.226271 -0.132662 0)
(-0.218692 -0.195428 0)
(-0.196297 -0.245951 0)
(-0.156607 -0.269504 0)
(-0.10161 -0.249652 0)
(-0.0431492 -0.176836 0)
(-0.00327177 -0.0629402 0)
(-0.00110591 0.0529345 0)
(-0.0119264 0.124515 0)
(-0.0284317 0.168364 0)
(-0.0473762 0.191533 0)
(-0.0666269 0.200031 0)
(-0.0853753 0.197911 0)
(-0.103427 0.187315 0)
(-0.120945 0.168916 0)
(-0.138214 0.142441 0)
(-0.155449 0.107134 0)
(-0.172594 0.0621545 0)
(-0.189149 0.0069875 0)
(-0.203736 -0.0580743 0)
(-0.213827 -0.130842 0)
(-0.215539 -0.206078 0)
(-0.203582 -0.273457 0)
(-0.172567 -0.3157 0)
(-0.120279 -0.309133 0)
(-0.0559914 -0.232032 0)
(-0.00526763 -0.0882262 0)
(-0.00127371 0.0591641 0)
(-0.0119276 0.137929 0)
(-0.0268616 0.185089 0)
(-0.0428148 0.209011 0)
(-0.0577772 0.217 0)
(-0.071295 0.213996 0)
(-0.0835653 0.202674 0)
(-0.0951607 0.183974 0)
(-0.106811 0.157685 0)
(-0.119242 0.122927 0)
(-0.133012 0.0785196 0)
(-0.148323 0.0233166 0)
(-0.164646 -0.0432943 0)
(-0.180267 -0.120716 0)
(-0.19169 -0.20552 0)
(-0.193024 -0.288913 0)
(-0.176329 -0.35296 0)
(-0.134117 -0.367624 0)
(-0.0700811 -0.295232 0)
(-0.00832735 -0.121382 0)
(-0.00184962 0.0658223 0)
(-0.0134579 0.150626 0)
(-0.0269707 0.199365 0)
(-0.0392289 0.222308 0)
(-0.0485023 0.228427 0)
(-0.0549771 0.223633 0)
(-0.0594215 0.211132 0)
(-0.0629009 0.192127 0)
(-0.0666008 0.166503 0)
(-0.0717281 0.133342 0)
(-0.0794181 0.0912615 0)
(-0.0905981 0.0386659 0)
(-0.10571 -0.0259472 0)
(-0.124238 -0.103483 0)
(-0.143909 -0.192901 0)
(-0.159454 -0.288464 0)
(-0.161628 -0.374331 0)
(-0.137665 -0.417157 0)
(-0.0832645 -0.362086 0)
(-0.0127832 -0.163496 0)
(-0.00328654 0.0743328 0)
(-0.0180828 0.163586 0)
(-0.0305597 0.211082 0)
(-0.0382768 0.230371 0)
(-0.0401624 0.232671 0)
(-0.0375364 0.224875 0)
(-0.0319965 0.21059 0)
(-0.0251983 0.191169 0)
(-0.0187698 0.166549 0)
(-0.0143172 0.135813 0)
(-0.0134306 0.0975023 0)
(-0.0176449 0.0497975 0)
(-0.0283073 -0.00935183 0)
(-0.04623 -0.0820392 0)
(-0.070974 -0.169596 0)
(-0.0992363 -0.270382 0)
(-0.122589 -0.373685 0)
(-0.124374 -0.448105 0)
(-0.0915502 -0.424659 0)
(-0.0187138 -0.214586 0)
(-0.00636397 0.0873956 0)
(-0.0280123 0.178258 0)
(-0.0392818 0.219868 0)
(-0.0405783 0.23159 0)
(-0.0323256 0.227562 0)
(-0.0177617 0.215418 0)
(0.000374734 0.198796 0)
(0.0197631 0.178928 0)
(0.0383893 0.155669 0)
(0.0543757 0.128075 0)
(0.0658493 0.094701 0)
(0.0708756 0.0537249 0)
(0.0674208 0.00295894 0)
(0.0535271 -0.0602718 0)
(0.0276636 -0.138977 0)
(-0.00977151 -0.235631 0)
(-0.0537665 -0.347024 0)
(-0.0866162 -0.450324 0)
(-0.0885202 -0.470851 0)
(-0.0253076 -0.272264 0)
(-0.0125247 0.110609 0)
(-0.0452199 0.196707 0)
(-0.0514521 0.224539 0)
(-0.0408735 0.22312 0)
(-0.0170347 0.209832 0)
(0.0139329 0.192196 0)
(0.04802 0.173107 0)
(0.0823847 0.153192 0)
(0.114853 0.13197 0)
(0.143515 0.108393 0)
(0.166461 0.0810823 0)
(0.18162 0.0483824 0)
(0.18657 0.00832035 0)
(0.178643 -0.0416951 0)
(0.154759 -0.105195 0)
(0.112462 -0.187488 0)
(0.0512039 -0.293356 0)
(-0.0143151 -0.414488 0)
(-0.0643337 -0.485122 0)
(-0.0295905 -0.330461 0)
(-0.0216115 0.148418 0)
(-0.0652288 0.213122 0)
(-0.0493935 0.215068 0)
(-0.0130314 0.19509 0)
(0.0358884 0.171614 0)
(0.0887358 0.149603 0)
(0.141276 0.129846 0)
(0.191066 0.111755 0)
(0.23647 0.0943079 0)
(0.276072 0.0763375 0)
(0.308327 0.0566068 0)
(0.331397 0.0337855 0)
(0.342844 0.00634681 0)
(0.339857 -0.0276627 0)
(0.318525 -0.0712369 0)
(0.274661 -0.130266 0)
(0.202174 -0.214989 0)
(0.107943 -0.334974 0)
(-0.00320471 -0.451462 0)
(-0.0232652 -0.378735 0)
(-0.0274723 0.229336 0)
(-0.0364933 0.22312 0)
(0.0465603 0.176951 0)
(0.127046 0.138742 0)
(0.205601 0.109501 0)
(0.277488 0.0878765 0)
(0.34179 0.0715785 0)
(0.398484 0.0585821 0)
(0.447621 0.0473869 0)
(0.488959 0.0368461 0)
(0.521799 0.0260103 0)
(0.544927 0.0140228 0)
(0.5564 5.14107e-06 0)
(0.55389 -0.0170371 0)
(0.533366 -0.0390883 0)
(0.490589 -0.0704558 0)
(0.415322 -0.120934 0)
(0.304905 -0.213375 0)
(0.125881 -0.348318 0)
(0.0236681 -0.37879 0)
(0.21444 0.135797 0)
(0.285137 0.0984496 0)
(0.444655 0.0569152 0)
(0.547913 0.036584 0)
(0.621662 0.0241692 0)
(0.678249 0.0163208 0)
(0.722824 0.011336 0)
(0.758414 0.00800683 0)
(0.786854 0.00557321 0)
(0.809038 0.0035711 0)
(0.82515 0.00169392 0)
(0.834864 -0.000271535 0)
(0.837314 -0.0025068 0)
(0.831191 -0.00505124 0)
(0.813548 -0.00850248 0)
(0.781941 -0.0135056 0)
(0.72408 -0.0231768 0)
(0.635276 -0.0406015 0)
(0.43131 -0.0912947 0)
(0.270899 -0.153523 0)
)
;

boundaryField
{
    movingWall
    {
        type            calculated;
        value           uniform (1 0 0);
    }
    fixedWalls
    {
        type            calculated;
        value           uniform (0 0 0);
    }
    frontAndBack
    {
        type            empty;
    }
}


// ************************************************************************* //
