/*--------------------------------*- C++ -*----------------------------------*\
  =========                 |
  \\      /  F ield         | OpenFOAM: The Open Source CFD Toolbox
   \\    /   O peration     | Website:  https://openfoam.org
    \\  /    A nd           | Version:  13
     \\/     M anipulation  |
\*---------------------------------------------------------------------------*/
FoamFile
{
    format      ascii;
    class       volScalarField;
    location    "3";
    object      p;
}
// * * * * * * * * * * * * * * * * * * * * * * * * * * * * * * * * * * * * * //

dimensions      [0 2 -2 0 0 0 0];

internalField   nonuniform List<scalar> 
400
(
-9.67721e-10
-0.000379816
-0.000725152
-0.000902103
-0.000829663
-0.000481966
0.000141583
0.00102801
0.00215164
0.00346944
0.0049147
0.00639395
0.00778796
0.00896522
0.00980362
0.0102214
0.0102085
0.00984966
0.0093294
0.00889484
0.000375118
-1.39179e-05
-0.000305568
-0.00041527
-0.000309101
2.98158e-05
0.000602882
0.00140147
0.00240582
0.00358022
0.00486711
0.0061864
0.00743243
0.00849004
0.00925222
0.00964784
0.00966847
0.00938472
0.00893743
0.00849531
0.000738411
0.000255541
-5.56581e-05
-0.000146237
-3.16918e-05
0.000290628
0.000819561
0.0015502
0.00247002
0.00355237
0.0047495
0.00598926
0.00717368
0.00819017
0.00892995
0.00931588
0.00933023
0.00902984
0.00852159
0.00794345
0.000927747
0.000308964
-7.08781e-05
-0.000182568
-8.40648e-05
0.000213362
0.0007052
0.00139043
0.00226491
0.00331226
0.00449381
0.00574571
0.00696663
0.00803465
0.00882234
0.00922893
0.00921525
0.00882602
0.00815694
0.00736091
0.000806026
4.82939e-05
-0.000413576
-0.000563254
-0.000494
-0.000228005
0.000228715
0.000880744
0.00173428
0.00278558
0.00400856
0.00534201
0.00668426
0.00789425
0.00881199
0.00929546
0.00926835
0.00875846
0.00786424
0.00678258
0.000271042
-0.00062183
-0.0011697
-0.00136693
-0.0013374
-0.00111159
-0.000694831
-7.4724e-05
0.000768113
0.00184639
0.00315094
0.00462968
0.00618065
0.00763988
0.00880122
0.00945853
0.00947246
0.00883703
0.00765544
0.00619626
-0.000765419
-0.00178974
-0.00242566
-0.00267864
-0.00270179
-0.00253268
-0.00217458
-0.00160511
-0.000788095
0.000311696
0.00171034
0.00337901
0.0052235
0.00706069
0.0086267
0.00962072
0.00979663
0.00907537
0.00754534
0.00557769
-0.00238701
-0.00354087
-0.00426798
-0.00458709
-0.0046826
-0.00460018
-0.0043412
-0.00387225
-0.00313676
-0.00206893
-0.000612886
0.00124634
0.00344749
0.00580645
0.00799901
0.00959318
0.0101668
0.00948927
0.00757356
0.00492499
-0.00467673
-0.00595943
-0.00678199
-0.00718
-0.00737534
-0.00742573
-0.00733344
-0.0070554
-0.0065129
-0.00560149
-0.00420679
-0.00223742
0.000322466
0.00333303
0.00643163
0.00902425
0.0104151
0.0100829
0.00782672
0.00429987
-0.00771871
-0.00912848
-0.0100481
-0.0105345
-0.0108593
-0.0110999
-0.011266
-0.0113103
-0.0111344
-0.0105907
-0.00948732
-0.00761443
-0.00481481
-0.00109886
0.00320133
0.00733291
0.0102159
0.0108224
0.00846527
0.00389289
-0.0116017
-0.0131304
-0.0141364
-0.0147026
-0.0151717
-0.0156536
-0.0161758
-0.0166969
-0.017108
-0.0172207
-0.0167533
-0.0153384
-0.0125934
-0.00828041
-0.00256311
0.00372928
0.00906141
0.0116198
0.00976622
0.00414056
-0.0164314
-0.0180521
-0.0191015
-0.0196917
-0.0202741
-0.021008
-0.0219522
-0.0230845
-0.0242999
-0.0253812
-0.025957
-0.0254763
-0.0232554
-0.018679
-0.0115386
-0.00253841
0.006391
0.012398
0.0122089
0.00593516
-0.0223635
-0.0239996
-0.0249796
-0.0254431
-0.0260149
-0.0269237
-0.0282711
-0.0300654
-0.0322197
-0.0345042
-0.036471
-0.037383
-0.0362127
-0.0318831
-0.0235899
-0.011607
0.00201856
0.0133502
0.0166594
0.0109628
-0.0296865
-0.0311337
-0.0317916
-0.0318124
-0.0321009
-0.0329713
-0.0345693
-0.036934
-0.0399997
-0.0435326
-0.047022
-0.0495652
-0.0498166
-0.0461672
-0.0371331
-0.0222313
-0.00314493
0.0154659
0.0247409
0.0221543
-0.0389972
-0.0397228
-0.0395328
-0.0385374
-0.038075
-0.0385364
-0.0400887
-0.0427778
-0.04654
-0.0511222
-0.0559469
-0.0599687
-0.0615533
-0.05862
-0.0490203
-0.0313431
-0.00641721
0.0212281
0.0395157
0.0441908
-0.0516511
-0.0503043
-0.0482146
-0.045251
-0.0433494
-0.0428966
-0.044011
-0.0466845
-0.0508008
-0.056036
-0.0616974
-0.0666571
-0.0688883
-0.0661024
-0.055413
-0.0346092
-0.00341358
0.0351351
0.0663191
0.0839622
-0.0704378
-0.0634966
-0.0575478
-0.0512395
-0.0470851
-0.0452161
-0.045554
-0.0479292
-0.0520845
-0.057555
-0.0634947
-0.0684877
-0.0703882
-0.0664224
-0.0533681
-0.0281736
0.0104798
0.0628979
0.111786
0.150328
-0.10403
-0.0812458
-0.0677602
-0.0559571
-0.0485152
-0.044777
-0.0441626
-0.0461421
-0.0501816
-0.0555782
-0.0612576
-0.0655555
-0.066099
-0.0596936
-0.0426928
-0.0111124
0.0377779
0.106628
0.179853
0.254854
-0.165558
-0.0984953
-0.0727993
-0.0537455
-0.0432515
-0.0385819
-0.0379673
-0.0402841
-0.0446768
-0.0502264
-0.0556864
-0.0592286
-0.0583244
-0.0492193
-0.0280027
0.0107319
0.0719158
0.162805
0.275499
0.436058
-0.399484
-0.136876
-0.0734756
-0.0466779
-0.0331705
-0.0283294
-0.0286139
-0.0319433
-0.0371534
-0.043214
-0.048817
-0.0520991
-0.0504809
-0.0405732
-0.0171074
0.0271594
0.101186
0.227427
0.417692
0.784124
)
;

boundaryField
{
    movingWall
    {
        type            zeroGradient;
    }
    fixedWalls
    {
        type            zeroGradient;
    }
    frontAndBack
    {
        type            empty;
    }
}


// ************************************************************************* //
