/*--------------------------------*- C++ -*----------------------------------*\
  =========                 |
  \\      /  F ield         | OpenFOAM: The Open Source CFD Toolbox
   \\    /   O peration     | Website:  https://openfoam.org
    \\  /    A nd           | Version:  13
     \\/     M anipulation  |
\*---------------------------------------------------------------------------*/
FoamFile
{
    format      ascii;
    class       surfaceScalarField;
    location    "3";
    object      phi;
}
// * * * * * * * * * * * * * * * * * * * * * * * * * * * * * * * * * * * * * //

dimensions      [0 3 -1 0 0 0 0];

internalField   nonuniform List<scalar> 
760
(
-2.14407e-06
2.14408e-06
-3.91644e-05
3.70203e-05
-0.000108987
6.98225e-05
-0.000199415
9.04285e-05
-0.000298968
9.95522e-05
-0.000398349
9.93812e-05
-0.000490047
9.16983e-05
-0.0005675
7.74523e-05
-0.000624486
5.69863e-05
-0.000655052
3.05662e-05
-0.000654064
-9.88099e-07
-0.00061826
-3.58036e-05
-0.000547817
-7.04435e-05
-0.000447697
-0.00010012
-0.000328464
-0.000119233
-0.000205824
-0.00012264
-9.84675e-05
-0.000107356
-2.40989e-05
-7.43687e-05
6.51189e-06
-3.06109e-05
6.51192e-06
-3.83362e-05
4.04802e-05
-0.000158134
0.000156818
-0.000343706
0.000255394
-0.000570904
0.000317627
-0.000815905
0.000344553
-0.00105792
0.000341399
-0.00127916
0.000312935
-0.0014638
0.000262089
-0.00159722
0.000190415
-0.00166615
9.94872e-05
-0.00165983
-7.30263e-06
-0.00157211
-0.000123522
-0.00140455
-0.000238008
-0.00116883
-0.000335838
-0.000888197
-0.000399866
-0.000596278
-0.00041456
-0.000332487
-0.000371148
-0.000133831
-0.000273024
-2.41322e-05
-0.00014031
-1.76202e-05
-7.82687e-05
0.000118749
-0.00027862
0.00035717
-0.000566046
0.00054282
-0.000905712
0.000657294
-0.00126565
0.000704488
-0.00161793
0.000693685
-0.00193824
0.000633245
-0.00220471
0.000528558
-0.00239716
0.000382863
-0.00249732
0.000199649
-0.00249043
-1.41997e-05
-0.00236789
-0.000246055
-0.00213117
-0.000474733
-0.0017952
-0.000671803
-0.00139061
-0.00080446
-0.00096264
-0.000842529
-0.000565515
-0.000768273
-0.000251863
-0.000586677
-5.94212e-05
-0.000332751
-7.70414e-05
-0.00011349
0.000232239
-0.000387399
0.000631079
-0.000766747
0.000922168
-0.00120537
0.00109592
-0.00166441
0.00116353
-0.00211113
0.00114041
-0.00251726
0.00103937
-0.00285719
0.000868488
-0.00310688
0.000632553
-0.00324388
0.000336658
-0.00324911
-8.97118e-06
-0.00310961
-0.00038556
-0.00282375
-0.000760591
-0.00240589
-0.00108967
-0.00189039
-0.00131995
-0.00133213
-0.0014008
-0.000800804
-0.00129959
-0.000368324
-0.00101916
-9.18115e-05
-0.000609264
-0.000168853
-0.0001444
0.000376639
-0.000485178
0.000971857
-0.000949068
0.00138606
-0.00147882
0.00162568
-0.00202948
0.00171418
-0.002565
0.00167593
-0.00305497
0.00152934
-0.0034717
0.00128522
-0.00378827
0.000949119
-0.00397797
0.000526362
-0.00401567
2.87267e-05
-0.00388136
-0.000519869
-0.00356582
-0.00107613
-0.00307805
-0.00157743
-0.00245253
-0.00194548
-0.00175298
-0.00210034
-0.00106835
-0.00198423
-0.000497513
-0.00159
-0.000125359
-0.000981417
-0.000294212
-0.000172532
0.000549171
-0.000575515
0.00137484
-0.00111914
0.00192968
-0.00173587
0.00224241
-0.00237559
0.00235391
-0.00300034
0.00230067
-0.00357915
0.00210815
-0.00408366
0.00178973
-0.00448483
0.00135028
-0.00475131
0.000792844
-0.00485005
0.000127464
-0.00475012
-0.000619793
-0.00442932
-0.00139693
-0.00388501
-0.00212174
-0.00314633
-0.00268416
-0.00228406
-0.00296262
-0.00141067
-0.00285761
-0.000663106
-0.00233756
-0.000167678
-0.00147685
-0.000461889
-0.000199297
0.000748468
-0.000661854
0.0018374
-0.00128232
0.00255015
-0.00198372
0.00294381
-0.00271192
0.0030821
-0.0034285
0.00301725
-0.00410369
0.00278335
-0.00471005
0.00239609
-0.00521743
0.00185767
-0.00558988
0.00116529
-0.00578492
0.000322509
-0.00575687
-0.000647841
-0.00546458
-0.00168923
-0.00488571
-0.00270061
-0.00403562
-0.00353425
-0.00298653
-0.0040117
-0.00187665
-0.00396749
-0.00089422
-0.00331999
-0.000228314
-0.00214275
-0.000690203
-0.000225695
0.000974163
-0.000746526
0.00235823
-0.00144162
0.00324524
-0.00222505
0.00372724
-0.0030398
0.00389685
-0.00384867
0.00382613
-0.00462502
0.0035597
-0.00534431
0.00311537
-0.00597709
0.00249045
-0.00648383
0.00167203
-0.0068124
0.000651071
-0.00690002
-0.000560218
-0.00668126
-0.00190798
-0.00610518
-0.00327669
-0.00516132
-0.00447812
-0.00391152
-0.0052615
-0.00251509
-0.00536392
-0.00122346
-0.00461162
-0.000318672
-0.00304755
-0.00100888
-0.000252474
0.00122664
-0.000830852
0.00293661
-0.00159752
0.00401191
-0.00245747
0.00458719
-0.00335172
0.0047911
-0.00424597
0.00472038
-0.00511881
0.00443253
-0.00595106
0.00394763
-0.00671664
0.00325603
-0.00737516
0.00233056
-0.00786709
0.001143
-0.00811337
-0.000313932
-0.00802203
-0.00199932
-0.00750603
-0.0037927
-0.00651475
-0.00546939
-0.00507969
-0.00669656
-0.00336395
-0.00707966
-0.00168441
-0.00629116
-0.000452513
-0.00427944
-0.00146139
-0.000280648
0.00150728
-0.000916133
0.00357209
-0.00174915
0.00484493
-0.00267448
0.00551252
-0.00363184
0.00574846
-0.00459133
0.00567986
-0.00553884
0.00538004
-0.00646322
0.00487201
-0.00734534
0.00413814
-0.00814871
0.00313392
-0.00881217
0.00180646
-0.00924614
0.000120042
-0.00933599
-0.00190948
-0.00895631
-0.00417237
-0.00800336
-0.00642234
-0.00645132
-0.00824861
-0.00443155
-0.00909943
-0.00230576
-0.00841694
-0.000646491
-0.00593871
-0.00210788
-0.000312511
0.0018198
-0.00100562
0.0042652
-0.00189666
0.00573596
-0.00286805
0.00648391
-0.00385863
0.00673904
-0.00484429
0.00666553
-0.00582006
0.00635581
-0.0067854
0.00583734
-0.00773224
0.00508498
-0.00863459
0.00403628
-0.00943919
0.00261106
-0.0100581
0.000738924
-0.010366
-0.00160155
-0.0102069
-0.00433147
-0.00941849
-0.00721075
-0.00788986
-0.00977724
-0.00566712
-0.0113222
-0.00309848
-0.0109856
-0.000919624
-0.00811757
-0.0030275
-0.000353385
0.00217318
-0.00110768
0.0050195
-0.00204498
0.00667326
-0.00303252
0.00747145
-0.00400934
0.00771585
-0.00495892
0.00761511
-0.00588709
0.00728399
-0.00680615
0.00675639
-0.00772317
0.00600201
-0.00863007
0.00494318
-0.00949354
0.00347452
-0.0102445
0.00148987
-0.0107679
-0.00107815
-0.0108978
-0.00420159
-0.0104231
-0.00768543
-0.00913139
-0.0110689
-0.00692313
-0.0135304
-0.00403128
-0.0138774
-0.00128929
-0.0108596
-0.00431679
-0.00041457
0.00258775
-0.00124023
0.00584516
-0.00220813
0.00764117
-0.00316849
0.00843181
-0.00406436
0.00861171
-0.00489042
0.00844118
-0.00566567
0.00805923
-0.00641711
0.00750784
-0.00717013
0.00675502
-0.00794078
0.00571383
-0.00872716
0.0042609
-0.00949764
0.00226035
-0.0101731
-0.000402711
-0.0106111
-0.00376357
-0.0105822
-0.00771437
-0.00978259
-0.0118685
-0.00792392
-0.0153891
-0.00499457
-0.0168068
-0.00175993
-0.0140942
-0.00607673
-0.000518138
0.00310589
-0.00143591
0.00676293
-0.00241147
0.00861674
-0.0032818
0.00930214
-0.00400463
0.00933454
-0.00459395
0.0090305
-0.00508629
0.00855157
-0.00552547
0.00794701
-0.0059566
0.00718615
-0.00642266
0.00617989
-0.00695943
0.00479768
-0.00758565
0.00288657
-0.00828375
0.000295394
-0.00896922
-0.0030781
-0.00944679
-0.00723681
-0.00937008
-0.0119452
-0.008266
-0.0164932
-0.0057646
-0.0193082
-0.00230124
-0.0175576
-0.00837797
-0.000704886
0.00381077
-0.00174514
0.00780319
-0.00268374
0.00955533
-0.00336474
0.00998314
-0.00378528
0.00975508
-0.00399464
0.00923987
-0.00405496
0.0086119
-0.00402954
0.00792158
-0.0039825
0.00713911
-0.00398118
0.00617857
-0.00409644
0.00491294
-0.00439864
0.00318877
-0.00494349
0.000840246
-0.00573278
-0.00228881
-0.00666463
-0.00630496
-0.00743668
-0.0111732
-0.00746761
-0.0164623
-0.00599017
-0.0207856
-0.00281636
-0.0207314
-0.0111943
-0.00104243
0.0048532
-0.00222265
0.00898341
-0.00301214
0.0103448
-0.00332401
0.010295
-0.00324462
0.00967568
-0.00288559
0.00888085
-0.00234589
0.0080722
-0.00170996
0.00728565
-0.00105664
0.0064858
-0.00046924
0.00559117
-4.31133e-05
0.00448681
0.00011463
0.00303103
-0.000109632
0.00106451
-0.000817442
-0.00158099
-0.00204306
-0.00507934
-0.00362993
-0.0095863
-0.00504338
-0.0150488
-0.0052065
-0.0206225
-0.00310574
-0.0228321
-0.0143001
-0.00161928
0.00647248
-0.00283114
0.0101953
-0.00315657
0.0106702
-0.00274006
0.0098785
-0.00184157
0.0087772
-0.000664119
0.00770339
0.000654093
0.00675399
0.00201634
0.0059234
0.00334292
0.00515922
0.00455194
0.00438215
0.00554542
0.00349333
0.00619931
0.00237713
0.00636043
0.000903391
0.00585729
-0.00107786
0.00452627
-0.00374832
0.00230913
-0.00736916
-0.000490122
-0.0122496
-0.00281925
-0.0182934
-0.00278947
-0.0228619
-0.0170895
-0.00237022
0.0088427
-0.00299673
0.0108218
-0.0020263
0.00969982
-0.000214966
0.00806717
0.00194017
0.00662206
0.00417906
0.00546451
0.00637199
0.00456105
0.00845129
0.00384411
0.0103692
0.00324129
0.0120719
0.0026795
0.013482
0.00208316
0.014487
0.00137223
0.0149291
0.000461267
0.0146092
-0.00075798
0.013278
-0.00241708
0.0106731
-0.0047643
0.00668626
-0.00826271
0.00198175
-0.0135888
-0.00117888
-0.0197013
-0.0182684
-0.00194718
0.0107899
0.000422121
0.00845248
0.00428969
0.00583225
0.00810929
0.00424756
0.0115982
0.00313318
0.0146946
0.0023681
0.0174145
0.00184114
0.0197953
0.00146325
0.0218641
0.00117252
0.0236212
0.000922411
0.025031
0.000673311
0.0260133
0.000389943
0.0264297
4.48476e-05
0.0261102
-0.0004384
0.0247824
-0.00108933
0.0220762
-0.00205812
0.0175041
-0.00369058
0.0106485
-0.00673323
0.00289147
-0.0119443
-0.0153769
0.0107899
0.0192424
0.0250746
0.0293222
0.0324554
0.0348235
0.0366646
0.0381279
0.0393004
0.0402228
0.0408961
0.041286
0.0413309
0.0408925
0.0398031
0.037745
0.0340545
0.0273212
0.0153769
)
;

boundaryField
{
    movingWall
    {
        type            calculated;
        value           uniform 0;
    }
    fixedWalls
    {
        type            calculated;
        value           uniform 0;
    }
    frontAndBack
    {
        type            empty;
    }
}


// ************************************************************************* //
