/*--------------------------------*- C++ -*----------------------------------*\
  =========                 |
  \\      /  F ield         | OpenFOAM: The Open Source CFD Toolbox
   \\    /   O peration     | Website:  https://openfoam.org
    \\  /    A nd           | Version:  13
     \\/     M anipulation  |
\*---------------------------------------------------------------------------*/
FoamFile
{
    format      ascii;
    class       surfaceScalarField;
    location    "3";
    object      phi_0;
}
// * * * * * * * * * * * * * * * * * * * * * * * * * * * * * * * * * * * * * //

dimensions      [0 3 -1 0 0 0 0];

internalField   nonuniform List<scalar> 
760
(
-2.15827e-06
2.15827e-06
-3.91708e-05
3.70125e-05
-0.000108948
6.9777e-05
-0.000199297
9.03493e-05
-0.000298744
9.94469e-05
-0.000398003
9.9259e-05
-0.000489574
9.15709e-05
-0.000566908
7.73342e-05
-0.000623804
5.68953e-05
-0.000654325
3.05209e-05
-0.000653353
-9.71777e-07
-0.000617634
-3.57186e-05
-0.000547339
-7.02951e-05
-0.000447409
-9.99304e-05
-0.00032837
-0.000119039
-0.000205884
-0.000122486
-9.86075e-05
-0.000107277
-2.42315e-05
-7.43761e-05
6.44572e-06
-3.06772e-05
6.44576e-06
-3.83242e-05
4.04825e-05
-0.000158035
0.000156724
-0.000343436
0.000255178
-0.00057039
0.000317303
-0.000815088
0.000344145
-0.00105677
0.000340941
-0.00127767
0.000312467
-0.001462
0.000261663
-0.00159519
0.000190092
-0.001664
9.93272e-05
-0.00165772
-7.25009e-06
-0.0015702
-0.000123235
-0.00140299
-0.000237505
-0.00116773
-0.000335191
-0.000887582
-0.000399191
-0.000596077
-0.000413991
-0.000332551
-0.000370802
-0.000133979
-0.000272948
-2.42161e-05
-0.00014044
-1.77702e-05
-7.82022e-05
0.000118685
-0.000278352
0.000356873
-0.000565454
0.00054228
-0.000904694
0.000656543
-0.00126413
0.000703577
-0.00161587
0.000692681
-0.00193563
0.000632231
-0.00220161
0.000527642
-0.00239368
0.000382163
-0.00249364
0.000199288
-0.00248677
-1.41242e-05
-0.0023645
-0.000245496
-0.00212828
-0.000473725
-0.001793
-0.000670477
-0.00138916
-0.000803034
-0.000961879
-0.000841268
-0.000565268
-0.000767413
-0.000251882
-0.000586334
-5.94805e-05
-0.000332842
-7.72507e-05
-0.000113359
0.000232044
-0.000386934
0.000630448
-0.000765786
0.000921132
-0.00120379
0.00109455
-0.00166212
0.0011619
-0.00210807
0.00113864
-0.00251343
0.00103759
-0.00285266
0.000866874
-0.0031018
0.0006313
-0.00323848
0.000335964
-0.00324366
-8.94078e-06
-0.00310444
-0.000384715
-0.0028192
-0.000758968
-0.00240222
-0.00108746
-0.00188777
-0.00131749
-0.00133053
-0.00139851
-0.00080005
-0.00129789
-0.000368111
-0.00101827
-9.18138e-05
-0.00060914
-0.000169065
-0.000144205
0.000376249
-0.000484513
0.000970757
-0.000947735
0.00138435
-0.00147667
0.00162348
-0.0020264
0.00171163
-0.00256092
0.00167316
-0.00304989
0.00152656
-0.00346569
0.00128267
-0.00378147
0.000947084
-0.00397065
0.000525139
-0.00400816
2.85742e-05
-0.00387409
-0.00051879
-0.00355922
-0.00107384
-0.00307253
-0.00157414
-0.00244836
-0.00194166
-0.00175025
-0.00209662
-0.00106689
-0.00198125
-0.000496969
-0.0015882
-0.000125277
-0.000980831
-0.000294342
-0.00017228
0.000548529
-0.000574674
0.00137315
-0.00111748
0.00192715
-0.00173321
0.00223922
-0.0023718
0.00235022
-0.00299532
0.00229668
-0.00357288
0.00210412
-0.00407619
0.00178598
-0.00447629
0.00134719
-0.00474198
0.000790831
-0.00484033
0.000126916
-0.00474051
-0.000618607
-0.00442039
-0.00139396
-0.00387731
-0.00211722
-0.0031403
-0.00267867
-0.00227991
-0.00295701
-0.00140831
-0.00285284
-0.000662126
-0.00233438
-0.000167482
-0.00147548
-0.000461824
-0.000199004
0.000747533
-0.000660889
0.00183504
-0.00128042
0.00254669
-0.00198069
0.00293949
-0.00270759
0.00307712
-0.00342275
0.00301185
-0.00409646
0.00277782
-0.00470133
0.00239085
-0.00520736
0.00185322
-0.00557872
0.00116219
-0.00577311
0.000321297
-0.00574497
-0.000646743
-0.00545327
-0.00168565
-0.00487572
-0.00269478
-0.00402755
-0.00352684
-0.00298077
-0.00400379
-0.00187322
-0.0039604
-0.000892704
-0.00331489
-0.000227974
-0.00214021
-0.000689798
-0.00022539
0.000972923
-0.000745523
0.00235517
-0.00143964
0.00324081
-0.00222188
0.00372172
-0.00303524
0.00389048
-0.00384257
0.00381918
-0.00461726
0.00355251
-0.00533486
0.00310845
-0.00596604
0.0024844
-0.00647142
0.00166757
-0.00679905
0.000648931
-0.00688636
-0.000559438
-0.00666804
-0.00190397
-0.00609322
-0.0032696
-0.00515139
-0.00446867
-0.00390418
-0.00525099
-0.00251053
-0.00535405
-0.00122135
-0.00460408
-0.000318159
-0.00304339
-0.00100796
-0.000252195
0.00122512
-0.00082993
0.0029329
-0.00159569
0.00400657
-0.00245449
0.00458053
-0.00334738
0.00478338
-0.00424008
0.00471188
-0.00511123
0.00442366
-0.00594171
0.00393893
-0.00670557
0.00324826
-0.00736259
0.00232459
-0.00785341
0.00113975
-0.00809917
-0.000313676
-0.00800805
-0.0019951
-0.00749308
-0.00378456
-0.00650367
-0.00545807
-0.00507119
-0.00668348
-0.00335841
-0.00706683
-0.00168169
-0.00628079
-0.000451809
-0.00427328
-0.00145977
-0.000280443
0.00150556
-0.000915437
0.0035679
-0.00174772
0.00483885
-0.0026721
0.00550491
-0.0036283
0.00573957
-0.00458642
0.00567
-0.0055324
0.00536964
-0.00645517
0.0048617
-0.00733569
0.00412878
-0.00813763
0.00312653
-0.00879998
0.0018021
-0.00923333
0.000119666
-0.00932313
-0.00190529
-0.0089441
-0.0041636
-0.00799252
-0.00640965
-0.00644257
-0.00823343
-0.00442549
-0.0090839
-0.00230258
-0.0084037
-0.000645595
-0.00593027
-0.00210536
-0.000312432
0.00181799
-0.00100531
0.00426077
-0.00189593
0.00572948
-0.00286672
0.0064757
-0.00385651
0.00672936
-0.00484121
0.0066547
-0.00581588
0.0063443
-0.00678003
0.00582585
-0.0077257
0.00507445
-0.00862699
0.00402782
-0.00943072
0.00260584
-0.010049
0.000737963
-0.0103567
-0.00159762
-0.0101977
-0.0043226
-0.00940982
-0.00719753
-0.00788231
-0.00976094
-0.00566138
-0.0113048
-0.00309515
-0.0109699
-0.000918575
-0.00810684
-0.00302393
-0.000353475
0.00217147
-0.00110788
0.00501518
-0.00204521
0.0066668
-0.00303265
0.00746314
-0.00400924
0.00770595
-0.00495848
0.00760394
-0.00588622
0.00727205
-0.0068048
0.00674443
-0.00772134
0.00599099
-0.00862779
0.00493427
-0.00949085
0.0034689
-0.0102414
0.00148852
-0.0107644
-0.00107463
-0.0108938
-0.00419317
-0.0104187
-0.00767267
-0.00912679
-0.0110529
-0.00691892
-0.0135127
-0.00402835
-0.0138605
-0.0012882
-0.010847
-0.00431213
-0.000414854
0.00258632
-0.00124102
0.00584135
-0.00220947
0.00763525
-0.00317034
0.00842401
-0.00406666
0.00860227
-0.00489316
0.00843043
-0.00566881
0.00804769
-0.00642063
0.00749625
-0.00717399
0.00674435
-0.00794493
0.00570521
-0.00873147
0.00425544
-0.00950187
0.00225892
-0.0101769
-0.000399606
-0.010614
-0.00375605
-0.0105837
-0.00770297
-0.00978254
-0.011854
-0.00792255
-0.0153727
-0.00499284
-0.0167902
-0.00175901
-0.0140808
-0.00607114
-0.000518601
0.00310492
-0.00143725
0.00676
-0.00241387
0.00861187
-0.00328532
0.00929546
-0.00400932
0.00932627
-0.00459986
0.00902097
-0.00509343
0.00854126
-0.00553381
0.00793663
-0.00596606
0.00717661
-0.00643307
0.00617222
-0.00697049
0.00479286
-0.00759684
0.00288527
-0.0082946
0.000298158
-0.00897893
-0.00307172
-0.00945456
-0.00722733
-0.00937526
-0.0119333
-0.00826838
-0.0164796
-0.00576483
-0.0192938
-0.00230079
-0.0175449
-0.00837193
-0.000705458
0.00381038
-0.00174685
0.0078014
-0.00268688
0.00955189
-0.00336949
0.00997808
-0.00379177
0.00974855
-0.00400298
0.00923218
-0.00406518
0.00860347
-0.00404158
0.00791303
-0.0039962
0.00713123
-0.00399624
0.00617226
-0.00411248
0.0049091
-0.00441472
0.00318751
-0.00495941
0.000842847
-0.00574747
-0.00228367
-0.00667723
-0.00629757
-0.00744632
-0.0111642
-0.00747364
-0.0164522
-0.00599272
-0.0207747
-0.00281667
-0.0207209
-0.0111886
-0.00104297
0.00485335
-0.00222435
0.00898278
-0.00301537
0.0103429
-0.00332906
0.0102918
-0.00325168
0.00967118
-0.00289482
0.00887531
-0.00235733
0.00806598
-0.00172353
0.00727923
-0.00107212
0.00647982
-0.000486191
0.00558633
-6.08534e-05
0.00448376
9.59024e-05
0.00303075
-0.000127271
0.00106602
-0.000833992
-0.00157695
-0.0020577
-0.00507386
-0.00364182
-0.00958012
-0.0050517
-0.0150424
-0.00521094
-0.0206154
-0.00310689
-0.022825
-0.0142955
-0.00161961
0.00647296
-0.00283232
0.0101955
-0.00315902
0.0106696
-0.00274413
0.00987687
-0.00184754
0.00877459
-0.000672187
0.00769996
0.000643823
0.00674997
0.0020039
0.00591915
0.00332853
0.00515519
0.00453599
0.00437887
0.00552845
0.0034913
0.00618239
0.00237681
0.00634377
0.000904634
0.00584187
-0.00107504
0.00451259
-0.00374458
0.00229769
-0.00736522
-0.000498866
-0.0122458
-0.00282442
-0.0182899
-0.00279122
-0.0228582
-0.0170867
-0.0023702
0.00884316
-0.002997
0.0108223
-0.00202726
0.00969988
-0.000217014
0.00806663
0.00193669
0.00662089
0.00417384
0.0054628
0.00636487
0.00455894
0.0084422
0.00384182
0.0103583
0.00323909
0.0120595
0.00267771
0.0134687
0.00208209
0.0144734
0.0013721
0.0149159
0.00046208
0.0145972
-0.000756291
0.0132675
-0.00241493
0.0106645
-0.0047622
0.00667976
-0.00826104
0.0019775
-0.0135876
-0.00118066
-0.0197
-0.0182674
-0.00194691
0.0107901
0.000422608
0.00845276
0.00429008
0.00583241
0.00810922
0.00424749
0.0115972
0.00313286
0.0146925
0.00236757
0.017411
0.00184045
0.0197903
0.00146249
0.0218576
0.00117181
0.0236134
0.000921863
0.0250225
0.00067304
0.0260046
0.00039002
0.0264214
4.5224e-05
0.0261028
-0.000437698
0.0247764
-0.00108854
0.0220717
-0.00205743
0.0175008
-0.00369017
0.0106463
-0.00673312
0.00289052
-0.0119443
-0.0153768
0.0107901
0.0192428
0.0250752
0.0293227
0.0324556
0.0348232
0.0366636
0.0381261
0.0392979
0.0402198
0.0408928
0.0412828
0.0413281
0.0408904
0.0398018
0.0377444
0.0340542
0.0273211
0.0153768
)
;

boundaryField
{
    movingWall
    {
        type            calculated;
        value           uniform 0;
    }
    fixedWalls
    {
        type            calculated;
        value           uniform 0;
    }
    frontAndBack
    {
        type            empty;
    }
}


// ************************************************************************* //
