/*--------------------------------*- C++ -*----------------------------------*\
  =========                 |
  \\      /  F ield         | OpenFOAM: The Open Source CFD Toolbox
   \\    /   O peration     | Website:  https://openfoam.org
    \\  /    A nd           | Version:  13
     \\/     M anipulation  |
\*---------------------------------------------------------------------------*/
FoamFile
{
    format      ascii;
    class       volVectorField;
    location    "3";
    object      U;
}
// * * * * * * * * * * * * * * * * * * * * * * * * * * * * * * * * * * * * * //

dimensions      [0 1 -1 0 0 0 0];

internalField   nonuniform List<vector> 
400
(
(0.000112597 -0.000111493 0)
(-0.000236556 3.95368e-05 0)
(-0.00136197 0.000189746 0)
(-0.00301797 0.000278117 0)
(-0.00496532 0.000316706 0)
(-0.00699358 0.000321666 0)
(-0.00893707 0.000302837 0)
(-0.0106582 0.000263766 0)
(-0.0120307 0.000203852 0)
(-0.0129316 0.000121317 0)
(-0.0132465 1.65419e-05 0)
(-0.0128856 -0.000105586 0)
(-0.0118113 -0.000232328 0)
(-0.0100703 -0.000343917 0)
(-0.00781678 -0.000415524 0)
(-0.00531926 -0.00042296 0)
(-0.0029352 -0.000350306 0)
(-0.0010489 -0.00019792 0)
(3.2364e-05 5.15841e-06 0)
(0.000178954 0.000166488 0)
(-4.04669e-05 0.000233843 0)
(-0.00159623 0.00153972 0)
(-0.00475332 0.00273679 0)
(-0.00900476 0.00350061 0)
(-0.0138364 0.00384086 0)
(-0.0188003 0.00382882 0)
(-0.0235142 0.00352723 0)
(-0.0276465 0.00297171 0)
(-0.030895 0.00217757 0)
(-0.0329774 0.00115838 0)
(-0.0336453 -5.16606e-05 0)
(-0.0327175 -0.00137772 0)
(-0.0301339 -0.00269132 0)
(-0.0260173 -0.00381319 0)
(-0.0207155 -0.00453655 0)
(-0.01481 -0.00467326 0)
(-0.00906147 -0.00411665 0)
(-0.00427824 -0.00290872 0)
(-0.00112212 -0.00130834 0)
(7.03234e-05 5.59091e-05 0)
(-0.000215646 0.00142358 0)
(-0.00306363 0.0047669 0)
(-0.00809538 0.00750633 0)
(-0.0145421 0.00922966 0)
(-0.0216873 0.00996618 0)
(-0.0289383 0.0098522 0)
(-0.0357776 0.00901498 0)
(-0.0417485 0.00753583 0)
(-0.0464323 0.0054616 0)
(-0.0494403 0.00284181 0)
(-0.0504318 -0.000224657 0)
(-0.049157 -0.00354719 0)
(-0.0455263 -0.00681631 0)
(-0.0396891 -0.00961167 0)
(-0.0320968 -0.0114542 0)
(-0.0235225 -0.0119103 0)
(-0.0149996 -0.0107357 0)
(-0.00765181 -0.00802424 0)
(-0.0024621 -0.00432559 0)
(-5.58561e-05 -0.000788093 0)
(-0.000357169 0.00336059 0)
(-0.00437972 0.009548 0)
(-0.0111248 0.0142244 0)
(-0.0195284 0.0170733 0)
(-0.0286833 0.0182213 0)
(-0.0378919 0.0179027 0)
(-0.0465532 0.0163237 0)
(-0.0541359 0.0136183 0)
(-0.0601468 0.00986889 0)
(-0.0641171 0.00516513 0)
(-0.0656199 -0.000320993 0)
(-0.0643154 -0.00626299 0)
(-0.0600338 -0.012137 0)
(-0.0528796 -0.0172237 0)
(-0.0433269 -0.0206908 0)
(-0.0322776 -0.0217647 0)
(-0.0210204 -0.0199796 0)
(-0.0110394 -0.0154388 0)
(-0.00373744 -0.00899072 0)
(-0.000138527 -0.00230273 0)
(-0.00047254 0.00595484 0)
(-0.00554688 0.0157226 0)
(-0.0138652 0.022687 0)
(-0.0240708 0.0267861 0)
(-0.0350758 0.0283416 0)
(-0.0461017 0.027736 0)
(-0.0564997 0.0252753 0)
(-0.065701 0.0211485 0)
(-0.0731661 0.0154645 0)
(-0.0783571 0.00833669 0)
(-0.0807441 -7.8649e-06 0)
(-0.0798534 -0.00911761 0)
(-0.0753604 -0.0182454 0)
(-0.0672262 -0.0263264 0)
(-0.0558549 -0.0320797 0)
(-0.0422241 -0.0342512 0)
(-0.0279033 -0.0319997 0)
(-0.0148592 -0.0253307 0)
(-0.00509779 -0.0153837 0)
(-0.000195923 -0.00444866 0)
(-0.000573409 0.00913309 0)
(-0.00661446 0.0231771 0)
(-0.016408 0.0327801 0)
(-0.028322 0.0382653 0)
(-0.0411041 0.0402508 0)
(-0.0539182 0.0393283 0)
(-0.066099 0.0359294 0)
(-0.0770727 0.030297 0)
(-0.0862776 0.0225441 0)
(-0.0931128 0.0127694 0)
(-0.0969244 0.00120737 0)
(-0.0970479 -0.0116126 0)
(-0.0929096 -0.0247344 0)
(-0.0842039 -0.0367113 0)
(-0.0711373 -0.0456932 0)
(-0.054676 -0.049735 0)
(-0.0366847 -0.047361 0)
(-0.0197721 -0.0382736 0)
(-0.00682915 -0.0238778 0)
(-0.000258722 -0.00731411 0)
(-0.000668171 0.012855 0)
(-0.00763124 0.031841 0)
(-0.0188416 0.044432 0)
(-0.0324073 0.0514563 0)
(-0.0469309 0.0539327 0)
(-0.061545 0.0527296 0)
(-0.0756016 0.0484339 0)
(-0.0885568 0.0413383 0)
(-0.0998554 0.0315246 0)
(-0.108847 0.019015 0)
(-0.11474 0.00397114 0)
(-0.116629 -0.0130828 0)
(-0.113593 -0.0310397 0)
(-0.104914 -0.0480593 0)
(-0.0904275 -0.0615911 0)
(-0.0709263 -0.0687164 0)
(-0.0485123 -0.066923 0)
(-0.0265795 -0.0552342 0)
(-0.00929557 -0.0352081 0)
(-0.000362933 -0.0111616 0)
(-0.000762393 0.0171048 0)
(-0.00863248 0.041679 0)
(-0.0212235 0.0575984 0)
(-0.0363883 0.066321 0)
(-0.0526008 0.0693786 0)
(-0.0689911 0.0679924 0)
(-0.0849658 0.0629394 0)
(-0.100052 0.0545561 0)
(-0.11374 0.0428488 0)
(-0.12536 0.0276832 0)
(-0.133998 0.00903604 0)
(-0.13848 -0.0126999 0)
(-0.137467 -0.0363794 0)
(-0.12969 -0.0598108 0)
(-0.114393 -0.0796409 0)
(-0.0919384 -0.0916519 0)
(-0.064456 -0.0917296 0)
(-0.0361515 -0.0775678 0)
(-0.0129316 -0.0505278 0)
(-0.000554131 -0.016463 0)
(-0.000860816 0.021883 0)
(-0.00964373 0.0526739 0)
(-0.0235805 0.0722342 0)
(-0.0402569 0.0827906 0)
(-0.0580256 0.0865179 0)
(-0.076043 0.0850785 0)
(-0.0938088 0.079481 0)
(-0.110967 0.0701032 0)
(-0.127106 0.0568311 0)
(-0.141593 0.0392846 0)
(-0.15344 0.0171234 0)
(-0.161248 -0.0095582 0)
(-0.163247 -0.039752 0)
(-0.15753 -0.0710465 0)
(-0.14254 -0.0992776 0)
(-0.11785 -0.118643 0)
(-0.0851878 -0.122735 0)
(-0.0493122 -0.106888 0)
(-0.0182509 -0.0714213 0)
(-0.000899085 -0.0239413 0)
(-0.000971451 0.0272049 0)
(-0.0106979 0.064814 0)
(-0.0259315 0.0882624 0)
(-0.0439567 0.100712 0)
(-0.0630007 0.105137 0)
(-0.0822709 0.103745 0)
(-0.101397 0.0978308 0)
(-0.120186 0.0878188 0)
(-0.138386 0.0734402 0)
(-0.155483 0.05399 0)
(-0.170526 0.0286815 0)
(-0.182006 -0.00287435 0)
(-0.187836 -0.0400418 0)
(-0.185507 -0.0804351 0)
(-0.172528 -0.119248 0)
(-0.147295 -0.148993 0)
(-0.110462 -0.160306 0)
(-0.0666027 -0.144734 0)
(-0.0258422 -0.0998371 0)
(-0.00150666 -0.0346259 0)
(-0.00111327 0.0331133 0)
(-0.011868 0.0780947 0)
(-0.0283334 0.105551 0)
(-0.0474347 0.119791 0)
(-0.0672562 0.124791 0)
(-0.0870818 0.123426 0)
(-0.106703 0.117339 0)
(-0.126132 0.107024 0)
(-0.145339 0.0920469 0)
(-0.164032 0.0713351 0)
(-0.181458 0.0435631 0)
(-0.196221 0.00769509 0)
(-0.206171 -0.0362671 0)
(-0.208421 -0.0863243 0)
(-0.199615 -0.137449 0)
(-0.176682 -0.180733 0)
(-0.138391 -0.203509 0)
(-0.0878237 -0.191922 0)
(-0.0362995 -0.13785 0)
(-0.00255984 -0.049916 0)
(-0.00133052 0.0397184 0)
(-0.0133226 0.0925442 0)
(-0.0309529 0.123899 0)
(-0.050717 0.139548 0)
(-0.0705388 0.144727 0)
(-0.0898189 0.143126 0)
(-0.108546 0.1368 0)
(-0.12697 0.126352 0)
(-0.14534 0.111211 0)
(-0.163695 0.089953 0)
(-0.181667 0.0606998 0)
(-0.198272 0.0216808 0)
(-0.211686 -0.0279617 0)
(-0.219089 -0.087051 0)
(-0.216617 -0.151017 0)
(-0.19975 -0.210314 0)
(-0.164688 -0.249322 0)
(-0.111303 -0.247556 0)
(-0.04998 -0.187102 0)
(-0.00435284 -0.0716107 0)
(-0.00171976 0.0472828 0)
(-0.015412 0.108283 0)
(-0.0341573 0.143038 0)
(-0.0539888 0.159268 0)
(-0.0726858 0.163823 0)
(-0.0898603 0.161355 0)
(-0.105756 0.154397 0)
(-0.120898 0.1437 0)
(-0.135855 0.128619 0)
(-0.151081 0.107471 0)
(-0.166764 0.0779172 0)
(-0.182619 0.0374946 0)
(-0.197598 -0.0156196 0)
(-0.209558 -0.0815038 0)
(-0.214807 -0.156853 0)
(-0.207889 -0.232799 0)
(-0.182287 -0.292155 0)
(-0.133045 -0.307824 0)
(-0.0664538 -0.247747 0)
(-0.00730532 -0.101801 0)
(-0.0024793 0.0563801 0)
(-0.0187961 0.125602 0)
(-0.0385965 0.162608 0)
(-0.0576034 0.177929 0)
(-0.0735788 0.180515 0)
(-0.0865653 0.176115 0)
(-0.0971831 0.167754 0)
(-0.106289 0.15635 0)
(-0.114799 0.141264 0)
(-0.123614 0.120696 0)
(-0.133553 0.0920423 0)
(-0.145209 0.0523382 0)
(-0.158683 -0.00111138 0)
(-0.173094 -0.0698635 0)
(-0.185816 -0.152622 0)
(-0.19157 -0.242821 0)
(-0.1819 -0.324179 0)
(-0.14625 -0.36516 0)
(-0.0836104 -0.3169 0)
(-0.011884 -0.142448 0)
(-0.00400821 0.0682007 0)
(-0.0246111 0.145071 0)
(-0.0451629 0.182066 0)
(-0.0618047 0.194051 0)
(-0.0726732 0.192698 0)
(-0.0786907 0.184896 0)
(-0.0810831 0.174073 0)
(-0.0811354 0.161266 0)
(-0.0801202 0.145881 0)
(-0.0793473 0.126142 0)
(-0.0802034 0.0994201 0)
(-0.084113 0.062566 0)
(-0.0924379 0.0123254 0)
(-0.105911 -0.0541471 0)
(-0.12381 -0.137949 0)
(-0.142537 -0.236232 0)
(-0.153639 -0.33681 0)
(-0.14172 -0.408461 0)
(-0.0966751 -0.386933 0)
(-0.0182877 -0.194406 0)
(-0.00700964 0.0849354 0)
(-0.034533 0.167236 0)
(-0.0544112 0.200064 0)
(-0.0655243 0.205068 0)
(-0.0673255 0.197263 0)
(-0.0624262 0.184456 0)
(-0.053001 0.170176 0)
(-0.0408695 0.155386 0)
(-0.0276223 0.13948 0)
(-0.0148397 0.120789 0)
(-0.00425313 0.0968624 0)
(0.00215469 0.0646773 0)
(0.00200991 0.0208684 0)
(-0.0069716 -0.0380219 0)
(-0.0263361 -0.115096 0)
(-0.0554686 -0.211807 0)
(-0.0888663 -0.323014 0)
(-0.108927 -0.424608 0)
(-0.097597 -0.444229 0)
(-0.0256516 -0.255601 0)
(-0.0128378 0.111332 0)
(-0.0500191 0.192661 0)
(-0.0636137 0.213794 0)
(-0.0619381 0.206573 0)
(-0.0476274 0.189541 0)
(-0.0260594 0.170568 0)
(-0.00055511 0.15255 0)
(0.0266444 0.135931 0)
(0.053875 0.11989 0)
(0.0795983 0.102829 0)
(0.10207 0.0825937 0)
(0.119141 0.0565656 0)
(0.128028 0.021745 0)
(0.125476 -0.0251924 0)
(0.10794 -0.0881381 0)
(0.0727268 -0.171916 0)
(0.0195574 -0.279666 0)
(-0.036126 -0.400915 0)
(-0.074785 -0.470199 0)
(-0.030645 -0.319318 0)
(-0.0213528 0.150788 0)
(-0.0667091 0.213702 0)
(-0.0552179 0.211287 0)
(-0.0250881 0.186951 0)
(0.016313 0.160291 0)
(0.0611263 0.136706 0)
(0.105882 0.117071 0)
(0.148843 0.100705 0)
(0.189005 0.0863589 0)
(0.225453 0.0724924 0)
(0.256942 0.0573401 0)
(0.281659 0.038917 0)
(0.296897 0.015009 0)
(0.299217 -0.0170405 0)
(0.284003 -0.0605033 0)
(0.246325 -0.121196 0)
(0.179836 -0.208449 0)
(0.0918469 -0.329803 0)
(-0.011842 -0.445716 0)
(-0.0245788 -0.373671 0)
(-0.0268877 0.23129 0)
(-0.0349802 0.225095 0)
(0.0472559 0.176941 0)
(0.124878 0.136333 0)
(0.198707 0.105133 0)
(0.264708 0.0823637 0)
(0.322749 0.0658451 0)
(0.373582 0.0535165 0)
(0.417965 0.043747 0)
(0.456238 0.0351768 0)
(0.488081 0.0265612 0)
(0.512431 0.016687 0)
(0.527019 0.00427334 0)
(0.529041 -0.0119235 0)
(0.513805 -0.0341043 0)
(0.476066 -0.0665886 0)
(0.404896 -0.118795 0)
(0.29753 -0.212598 0)
(0.121355 -0.347687 0)
(0.022556 -0.377951 0)
(0.214952 0.136269 0)
(0.286999 0.0991457 0)
(0.447197 0.0573569 0)
(0.549923 0.036598 0)
(0.621779 0.0238172 0)
(0.675527 0.0157505 0)
(0.716877 0.0107216 0)
(0.749408 0.00751187 0)
(0.775441 0.00532715 0)
(0.796238 0.00365349 0)
(0.812196 0.00211773 0)
(0.822987 0.000440924 0)
(0.827584 -0.00170436 0)
(0.824302 -0.00423078 0)
(0.809542 -0.00782747 0)
(0.780292 -0.0131321 0)
(0.723817 -0.0231609 0)
(0.63535 -0.0408151 0)
(0.43112 -0.0915801 0)
(0.270761 -0.153659 0)
)
;

boundaryField
{
    movingWall
    {
        type            fixedValue;
        value           uniform (1 0 0);
    }
    fixedWalls
    {
        type            fixedValue;
        value           uniform (0 0 0);
    }
    frontAndBack
    {
        type            empty;
    }
}


// ************************************************************************* //
