/*--------------------------------*- C++ -*----------------------------------*\
  =========                 |
  \\      /  F ield         | OpenFOAM: The Open Source CFD Toolbox
   \\    /   O peration     | Website:  https://openfoam.org
    \\  /    A nd           | Version:  13
     \\/     M anipulation  |
\*---------------------------------------------------------------------------*/
FoamFile
{
    format      ascii;
    class       volVectorField;
    location    "3";
    object      U_0;
}
// * * * * * * * * * * * * * * * * * * * * * * * * * * * * * * * * * * * * * //

dimensions      [0 1 -1 0 0 0 0];

internalField   nonuniform List<vector> 
400
(
(0.000112352 -0.000111249 0)
(-0.00023696 3.96976e-05 0)
(-0.00136181 0.000189742 0)
(-0.00301653 0.000277981 0)
(-0.004962 0.000316474 0)
(-0.00698793 0.000321362 0)
(-0.00892886 0.000302491 0)
(-0.0106475 0.000263419 0)
(-0.0120178 0.000203559 0)
(-0.0129173 0.000121147 0)
(-0.0132318 1.65605e-05 0)
(-0.0128719 -0.000105329 0)
(-0.0118 -0.000231845 0)
(-0.0100625 -0.000343288 0)
(-0.00781302 -0.000414897 0)
(-0.00531918 -0.000422518 0)
(-0.00293759 -0.000350203 0)
(-0.00105201 -0.000198195 0)
(3.02433e-05 4.6645e-06 0)
(0.000178495 0.000166029 0)
(-4.06103e-05 0.000234245 0)
(-0.00159554 0.00153919 0)
(-0.00475003 0.00273487 0)
(-0.00899726 0.00349742 0)
(-0.0138233 0.00383668 0)
(-0.0187807 0.00382401 0)
(-0.0234876 0.00352225 0)
(-0.0276133 0.00296712 0)
(-0.0308562 0.00217406 0)
(-0.0329349 0.00115664 0)
(-0.0336019 -5.10454e-05 0)
(-0.0326764 -0.00137448 0)
(-0.0300986 -0.00268567 0)
(-0.0259904 -0.00380598 0)
(-0.0206984 -0.00452915 0)
(-0.0148024 -0.00466729 0)
(-0.00906094 -0.00411344 0)
(-0.00428122 -0.00290874 0)
(-0.00112497 -0.00131063 0)
(6.96779e-05 5.37318e-05 0)
(-0.000215551 0.00142322 0)
(-0.00306093 0.0047636 0)
(-0.00808735 0.00749958 0)
(-0.0145264 0.00921985 0)
(-0.0216622 0.00995401 0)
(-0.0289025 0.00983861 0)
(-0.0357307 0.00900119 0)
(-0.0416909 0.00752333 0)
(-0.0463657 0.00545212 0)
(-0.0493677 0.00283707 0)
(-0.0503571 -0.000223246 0)
(-0.0490853 -0.00353901 0)
(-0.0454625 -0.00680193 0)
(-0.0396376 -0.00959307 0)
(-0.0320602 -0.0114346 0)
(-0.023501 -0.0118936 0)
(-0.0149906 -0.0107251 0)
(-0.00765078 -0.00802119 0)
(-0.00246385 -0.00432849 0)
(-5.65137e-05 -0.00079191 0)
(-0.000356808 0.0033583 0)
(-0.00437465 0.00953938 0)
(-0.0111113 0.0142095 0)
(-0.0195036 0.0170531 0)
(-0.0286449 0.018197 0)
(-0.0378385 0.017876 0)
(-0.0464841 0.0162969 0)
(-0.0540519 0.0135941 0)
(-0.0600499 0.00985031 0)
(-0.0640109 0.00515532 0)
(-0.0655097 -0.00031949 0)
(-0.0642075 -0.00624896 0)
(-0.059935 -0.0121112 0)
(-0.0527962 -0.0171894 0)
(-0.0432635 -0.0206534 0)
(-0.0322358 -0.0217311 0)
(-0.0209981 -0.0199558 0)
(-0.0110314 -0.0154281 0)
(-0.00373686 -0.00899144 0)
(-0.000139106 -0.00230729 0)
(-0.000471916 0.00594928 0)
(-0.0055394 0.0157059 0)
(-0.0138461 0.0226604 0)
(-0.0240366 0.0267514 0)
(-0.035024 0.0283008 0)
(-0.0460304 0.0276918 0)
(-0.056408 0.0252309 0)
(-0.0655895 0.0211081 0)
(-0.0730369 0.0154328 0)
(-0.0782144 0.00831857 0)
(-0.0805938 -8.28801e-06 0)
(-0.0797033 -0.00909806 0)
(-0.0752195 -0.0182064 0)
(-0.0671032 -0.0262724 0)
(-0.0557571 -0.0320186 0)
(-0.0421553 -0.0341933 0)
(-0.0278628 -0.0319553 0)
(-0.0148413 -0.025306 0)
(-0.0050938 -0.015378 0)
(-0.000196369 -0.00445256 0)
(-0.00057255 0.009123 0)
(-0.00660485 0.0231497 0)
(-0.016384 0.0327385 0)
(-0.0282796 0.0382123 0)
(-0.0410402 0.0401894 0)
(-0.0538305 0.0392619 0)
(-0.0659862 0.0358624 0)
(-0.0769348 0.0302353 0)
(-0.0861164 0.0224942 0)
(-0.0929326 0.0127384 0)
(-0.0967317 0.00120147 0)
(-0.0968519 -0.0115893 0)
(-0.0927213 -0.0246816 0)
(-0.0840349 -0.036634 0)
(-0.0709982 -0.0456018 0)
(-0.0545738 -0.0496441 0)
(-0.0366208 -0.0472864 0)
(-0.0197413 -0.0382264 0)
(-0.00682058 -0.0238601 0)
(-0.000258971 -0.0073154 0)
(-0.000667146 0.0128393 0)
(-0.00762015 0.0318008 0)
(-0.0188142 0.0443725 0)
(-0.0323589 0.0513818 0)
(-0.0468581 0.0538467 0)
(-0.0614448 0.0526365 0)
(-0.075472 0.0483394 0)
(-0.088397 0.0412496 0)
(-0.0996666 0.0314506 0)
(-0.108633 0.0189653 0)
(-0.114508 0.00395481 0)
(-0.116389 -0.013059 0)
(-0.113357 -0.0309739 0)
(-0.104698 -0.0479561 0)
(-0.0902442 -0.0614633 0)
(-0.070787 -0.0685833 0)
(-0.0484213 -0.0668071 0)
(-0.026533 -0.0551542 0)
(-0.00928118 -0.0351711 0)
(-0.000362886 -0.0111576 0)
(-0.000761314 0.017083 0)
(-0.00862095 0.0416247 0)
(-0.021195 0.0575195 0)
(-0.0363379 0.0662227 0)
(-0.0525244 0.0692653 0)
(-0.0688852 0.0678692 0)
(-0.0848275 0.062813 0)
(-0.0998795 0.0544353 0)
(-0.113534 0.0427448 0)
(-0.125124 0.0276087 0)
(-0.133737 0.00900366 0)
(-0.138207 -0.01268 0)
(-0.137194 -0.0363028 0)
(-0.129434 -0.0596812 0)
(-0.114171 -0.0794724 0)
(-0.0917637 -0.0914688 0)
(-0.0643373 -0.0915619 0)
(-0.0360877 -0.0774439 0)
(-0.0129104 -0.050463 0)
(-0.000553649 -0.0164506 0)
(-0.000859846 0.0218552 0)
(-0.00963322 0.0526058 0)
(-0.0235542 0.0721358 0)
(-0.0402099 0.0826684 0)
(-0.0579535 0.0863766 0)
(-0.0759417 0.0849236 0)
(-0.0936747 0.0793202 0)
(-0.110798 0.069947 0)
(-0.126901 0.0566931 0)
(-0.141355 0.0391807 0)
(-0.153175 0.0170701 0)
(-0.160966 -0.0095469 0)
(-0.162961 -0.0396684 0)
(-0.157256 -0.0708927 0)
(-0.142296 -0.0990684 0)
(-0.117651 -0.118406 0)
(-0.0850466 -0.122508 0)
(-0.049232 -0.106711 0)
(-0.0182222 -0.07132 0)
(-0.000897965 -0.0239168 0)
(-0.000970792 0.0271721 0)
(-0.0106901 0.0647341 0)
(-0.0259115 0.088147 0)
(-0.0439198 0.100568 0)
(-0.0629425 0.104969 0)
(-0.0821872 0.10356 0)
(-0.101284 0.0976366 0)
(-0.120041 0.0876276 0)
(-0.138209 0.0732679 0)
(-0.155274 0.0538557 0)
(-0.170291 0.0286053 0)
(-0.181753 -0.00287494 0)
(-0.187576 -0.039956 0)
(-0.185253 -0.0802631 0)
(-0.172294 -0.119005 0)
(-0.147096 -0.148707 0)
(-0.110311 -0.16002 0)
(-0.0665111 -0.144497 0)
(-0.0258063 -0.0996919 0)
(-0.00150461 -0.0345852 0)
(-0.00111314 0.0330774 0)
(-0.011865 0.078007 0)
(-0.0283239 0.105423 0)
(-0.0474151 0.119631 0)
(-0.0672227 0.124603 0)
(-0.0870306 0.123217 0)
(-0.106631 0.117117 0)
(-0.126037 0.106803 0)
(-0.14522 0.0918455 0)
(-0.16389 0.0711746 0)
(-0.181295 0.0434662 0)
(-0.196043 0.00768184 0)
(-0.205985 -0.0361841 0)
(-0.208234 -0.0861439 0)
(-0.199434 -0.137184 0)
(-0.176517 -0.180412 0)
(-0.138255 -0.203174 0)
(-0.0877314 -0.191629 0)
(-0.0362584 -0.137657 0)
(-0.00255651 -0.0498555 0)
(-0.0013311 0.0396824 0)
(-0.0133258 0.0924549 0)
(-0.0309577 0.123767 0)
(-0.0507213 0.13938 0)
(-0.0705398 0.144528 0)
(-0.0898141 0.142903 0)
(-0.108533 0.136562 0)
(-0.126948 0.126114 0)
(-0.145308 0.110992 0)
(-0.163654 0.0897763 0)
(-0.181617 0.0605893 0)
(-0.198214 0.0216573 0)
(-0.21162 -0.0278857 0)
(-0.219016 -0.0868742 0)
(-0.216534 -0.150751 0)
(-0.199658 -0.209981 0)
(-0.164596 -0.248961 0)
(-0.111228 -0.247222 0)
(-0.0499388 -0.186865 0)
(-0.00434797 -0.0715279 0)
(-0.00172115 0.0472505 0)
(-0.0154224 0.108199 0)
(-0.0341787 0.142912 0)
(-0.0540209 0.159104 0)
(-0.0727277 0.163626 0)
(-0.089911 0.161132 0)
(-0.105815 0.154158 0)
(-0.120964 0.14346 0)
(-0.135928 0.128399 0)
(-0.151161 0.107292 0)
(-0.166848 0.0778039 0)
(-0.182706 0.0374658 0)
(-0.19768 -0.0155527 0)
(-0.209627 -0.0813419 0)
(-0.214854 -0.156606 0)
(-0.207905 -0.232486 0)
(-0.18227 -0.291803 0)
(-0.133009 -0.307479 0)
(-0.0664215 -0.24748 0)
(-0.00729908 -0.101696 0)
(-0.00248139 0.0563555 0)
(-0.0188131 0.125533 0)
(-0.0386335 0.162497 0)
(-0.0576625 0.177781 0)
(-0.073661 0.180334 0)
(-0.0866713 0.175909 0)
(-0.0973136 0.167531 0)
(-0.106444 0.156127 0)
(-0.114977 0.141059 0)
(-0.123814 0.12053 0)
(-0.13377 0.0919373 0)
(-0.145434 0.0523095 0)
(-0.158906 -0.00105318 0)
(-0.173304 -0.0697242 0)
(-0.185995 -0.152412 0)
(-0.191703 -0.242554 0)
(-0.181976 -0.323872 0)
(-0.146271 -0.364841 0)
(-0.0835988 -0.316631 0)
(-0.0118775 -0.142329 0)
(-0.00401063 0.0681869 0)
(-0.0246322 0.145023 0)
(-0.0452104 0.181982 0)
(-0.061883 0.193932 0)
(-0.0727853 0.192547 0)
(-0.0788388 0.184721 0)
(-0.0812685 0.173883 0)
(-0.0813583 0.161074 0)
(-0.0803785 0.145704 0)
(-0.0796365 0.126001 0)
(-0.0805168 0.0993319 0)
(-0.0844367 0.0625392 0)
(-0.0927614 0.0123783 0)
(-0.106222 -0.0540332 0)
(-0.124088 -0.137782 0)
(-0.142764 -0.236025 0)
(-0.153798 -0.336573 0)
(-0.141803 -0.408203 0)
(-0.0966939 -0.386695 0)
(-0.0182832 -0.194284 0)
(-0.00701165 0.0849334 0)
(-0.0345532 0.167212 0)
(-0.0544592 0.20001 0)
(-0.0656062 0.204984 0)
(-0.0674459 0.197152 0)
(-0.0625886 0.184323 0)
(-0.0532076 0.170028 0)
(-0.0411201 0.155235 0)
(-0.027914 0.139341 0)
(-0.0151662 0.120677 0)
(-0.00461061 0.0967928 0)
(0.0017934 0.0646613 0)
(0.00165095 0.020909 0)
(-0.00732383 -0.0379315 0)
(-0.026653 -0.11497 0)
(-0.0557393 -0.211661 0)
(-0.0890716 -0.322854 0)
(-0.109055 -0.42443 0)
(-0.0976459 -0.444051 0)
(-0.0256516 -0.255495 0)
(-0.0128384 0.111339 0)
(-0.0500318 0.192659 0)
(-0.0636484 0.213771 0)
(-0.0620021 0.206526 0)
(-0.0477268 0.189471 0)
(-0.0261991 0.170479 0)
(-0.000738188 0.152447 0)
(0.0264171 0.135824 0)
(0.0536057 0.119789 0)
(0.079293 0.102747 0)
(0.101738 0.0825425 0)
(0.118799 0.0565593 0)
(0.127689 0.0217719 0)
(0.125151 -0.0251249 0)
(0.107645 -0.0880478 0)
(0.0724712 -0.171819 0)
(0.0193568 -0.27957 0)
(-0.036262 -0.400817 0)
(-0.0748506 -0.470094 0)
(-0.0306505 -0.319244 0)
(-0.0213513 0.150799 0)
(-0.0667096 0.213711 0)
(-0.0552287 0.211284 0)
(-0.0251167 0.186932 0)
(0.016259 0.160255 0)
(0.0610404 0.136657 0)
(0.10576 0.117011 0)
(0.148681 0.100641 0)
(0.188805 0.0862976 0)
(0.225218 0.0724422 0)
(0.256681 0.0573091 0)
(0.281387 0.0389122 0)
(0.296627 0.0150288 0)
(0.298962 -0.0169964 0)
(0.283776 -0.0604454 0)
(0.246133 -0.121137 0)
(0.179683 -0.208399 0)
(0.0917382 -0.329763 0)
(-0.0118999 -0.445673 0)
(-0.0245871 -0.373635 0)
(-0.0268855 0.231298 0)
(-0.0349724 0.225105 0)
(0.0472654 0.176946 0)
(0.124883 0.136331 0)
(0.198698 0.105121 0)
(0.264679 0.0823447 0)
(0.322694 0.0658205 0)
(0.373497 0.0534891 0)
(0.417849 0.0437206 0)
(0.456094 0.0351556 0)
(0.487916 0.0265493 0)
(0.512255 0.0166873 0)
(0.526844 0.00428625 0)
(0.528881 -0.0119002 0)
(0.51367 -0.0340756 0)
(0.47596 -0.0665618 0)
(0.404818 -0.118777 0)
(0.297476 -0.212589 0)
(0.121323 -0.347681 0)
(0.0225484 -0.377944 0)
(0.214953 0.13627 0)
(0.287005 0.0991481 0)
(0.447208 0.0573591 0)
(0.549936 0.0365989 0)
(0.621787 0.0238167 0)
(0.675527 0.0157487 0)
(0.716864 0.010719 0)
(0.749381 0.00750897 0)
(0.775399 0.00532466 0)
(0.796183 0.00365212 0)
(0.812132 0.00211813 0)
(0.822921 0.000443394 0)
(0.827523 -0.00169974 0)
(0.824251 -0.00422542 0)
(0.809507 -0.00782229 0)
(0.780272 -0.0131283 0)
(0.72381 -0.0231593 0)
(0.635348 -0.0408157 0)
(0.431118 -0.0915817 0)
(0.27076 -0.15366 0)
)
;

boundaryField
{
    movingWall
    {
        type            calculated;
        value           uniform (1 0 0);
    }
    fixedWalls
    {
        type            calculated;
        value           uniform (0 0 0);
    }
    frontAndBack
    {
        type            empty;
    }
}


// ************************************************************************* //
