# Selection   : all
# Cells       : 400
# Volume      : 1.000000e+00
# Time        	max(p)
0             	0.000000e+00
0.01          	6.715922e-01
0.02          	8.131619e-01
0.03          	8.134946e-01
0.04          	7.914614e-01
0.05          	7.711491e-01
0.06          	7.559358e-01
0.07          	7.449258e-01
0.08          	7.367250e-01
0.09          	7.303909e-01
0.1           	7.253026e-01
0.11          	7.209651e-01
0.12          	7.177731e-01
0.13          	7.148412e-01
0.14          	7.126233e-01
0.15          	7.107309e-01
0.16          	7.091950e-01
0.17          	7.079666e-01
0.18          	7.069925e-01
0.19          	7.062473e-01
0.2           	7.056738e-01
0.21          	7.051342e-01
0.22          	7.043284e-01
0.23          	7.050905e-01
0.24          	7.071558e-01
0.25          	7.076782e-01
0.26          	7.075083e-01
0.27          	7.075370e-01
0.28          	7.078601e-01
0.29          	7.083677e-01
0.3           	7.089822e-01
0.31          	7.096693e-01
0.32          	7.104264e-01
0.33          	7.112641e-01
0.34          	7.122137e-01
0.35          	7.119050e-01
0.36          	7.122664e-01
0.37          	7.129993e-01
0.38          	7.137729e-01
0.39          	7.145287e-01
0.4           	7.152783e-01
0.41          	7.160231e-01
0.42          	7.168041e-01
0.43          	7.175799e-01
0.44          	7.182029e-01
0.45          	7.179418e-01
0.46          	7.192284e-01
0.47          	7.200239e-01
0.48          	7.206554e-01
0.49          	7.214565e-01
0.5           	7.221976e-01
0.51          	7.229404e-01
0.52          	7.236466e-01
0.53          	7.242532e-01
0.54          	7.250879e-01
0.55          	7.258372e-01
0.56          	7.265319e-01
0.57          	7.272116e-01
0.58          	7.278814e-01
0.59          	7.285391e-01
0.6           	7.291801e-01
0.61          	7.297704e-01
0.62          	7.301237e-01
0.63          	7.313213e-01
0.64          	7.320244e-01
0.65          	7.326268e-01
0.66          	7.332142e-01
0.67          	7.338043e-01
0.68          	7.343984e-01
0.69          	7.349956e-01
0.7           	7.355839e-01
0.71          	7.361631e-01
0.72          	7.367667e-01
0.73          	7.373571e-01
0.74          	7.379342e-01
0.75          	7.385062e-01
0.76          	7.390812e-01
0.77          	7.396712e-01
0.78          	7.403282e-01
0.79          	7.410452e-01
0.8           	7.410092e-01
0.81          	7.414860e-01
0.82          	7.420555e-01
0.83          	7.426191e-01
0.84          	7.431594e-01
0.85          	7.436730e-01
0.86          	7.441722e-01
0.87          	7.446552e-01
0.88          	7.451342e-01
0.89          	7.456414e-01
0.9           	7.461128e-01
0.91          	7.465736e-01
0.92          	7.470299e-01
0.93          	7.474790e-01
0.94          	7.479226e-01
0.95          	7.483612e-01
0.96          	7.487945e-01
0.97          	7.492225e-01
0.98          	7.496452e-01
0.99          	7.500628e-01
1             	7.504751e-01
1.01          	7.508824e-01
1.02          	7.512847e-01
1.03          	7.516821e-01
1.04          	7.520754e-01
1.05          	7.524604e-01
1.06          	7.528425e-01
1.07          	7.532201e-01
1.08          	7.535928e-01
1.09          	7.539601e-01
1.1           	7.543212e-01
1.11          	7.546715e-01
1.12          	7.550259e-01
1.13          	7.554100e-01
1.14          	7.557612e-01
1.15          	7.561008e-01
1.16          	7.564359e-01
1.17          	7.567680e-01
1.18          	7.571013e-01
1.19          	7.574210e-01
1.2           	7.577408e-01
1.21          	7.580530e-01
1.22          	7.583366e-01
1.23          	7.586143e-01
1.24          	7.590318e-01
1.25          	7.593415e-01
1.26          	7.596399e-01
1.27          	7.599291e-01
1.28          	7.602098e-01
1.29          	7.604502e-01
1.3           	7.607835e-01
1.31          	7.611666e-01
1.32          	7.615328e-01
1.33          	7.617222e-01
1.34          	7.617945e-01
1.35          	7.620683e-01
1.36          	7.623715e-01
1.37          	7.626625e-01
1.38          	7.629376e-01
1.39          	7.632016e-01
1.4           	7.634591e-01
1.41          	7.637120e-01
1.42          	7.639605e-01
1.43          	7.642031e-01
1.44          	7.644334e-01
1.45          	7.645863e-01
1.46          	7.649599e-01
1.47          	7.652421e-01
1.48          	7.654733e-01
1.49          	7.656936e-01
1.5           	7.659089e-01
1.51          	7.661299e-01
1.52          	7.663422e-01
1.53          	7.665723e-01
1.54          	7.668120e-01
1.55          	7.670387e-01
1.56          	7.672415e-01
1.57          	7.674501e-01
1.58          	7.676591e-01
1.59          	7.678671e-01
1.6           	7.680736e-01
1.61          	7.682781e-01
1.62          	7.684806e-01
1.63          	7.686810e-01
1.64          	7.688794e-01
1.65          	7.690757e-01
1.66          	7.692700e-01
1.67          	7.694623e-01
1.68          	7.696527e-01
1.69          	7.698411e-01
1.7           	7.700276e-01
1.71          	7.702123e-01
1.72          	7.703951e-01
1.73          	7.705761e-01
1.74          	7.707552e-01
1.75          	7.709326e-01
1.76          	7.711082e-01
1.77          	7.712822e-01
1.78          	7.714543e-01
1.79          	7.716240e-01
1.8           	7.717917e-01
1.81          	7.719588e-01
1.82          	7.721242e-01
1.83          	7.722865e-01
1.84          	7.724405e-01
1.85          	7.726035e-01
1.86          	7.727772e-01
1.87          	7.729369e-01
1.88          	7.730921e-01
1.89          	7.732452e-01
1.9           	7.733971e-01
1.91          	7.735479e-01
1.92          	7.736975e-01
1.93          	7.738458e-01
1.94          	7.739929e-01
1.95          	7.741387e-01
1.96          	7.742832e-01
1.97          	7.744264e-01
1.98          	7.745683e-01
1.99          	7.747088e-01
2             	7.748481e-01
2.01          	7.749861e-01
2.02          	7.751228e-01
2.03          	7.752582e-01
2.04          	7.753925e-01
2.05          	7.755254e-01
2.06          	7.756572e-01
2.07          	7.757878e-01
2.08          	7.759172e-01
2.09          	7.760454e-01
2.1           	7.761724e-01
2.11          	7.762984e-01
2.12          	7.764231e-01
2.13          	7.765468e-01
2.14          	7.766694e-01
2.15          	7.767908e-01
2.16          	7.769112e-01
2.17          	7.770305e-01
2.18          	7.771487e-01
2.19          	7.772659e-01
2.2           	7.773821e-01
2.21          	7.774972e-01
2.22          	7.776114e-01
2.23          	7.777245e-01
2.24          	7.778367e-01
2.25          	7.779479e-01
2.26          	7.780582e-01
2.27          	7.781676e-01
2.28          	7.782761e-01
2.29          	7.783839e-01
2.3           	7.784918e-01
2.31          	7.785984e-01
2.32          	7.786970e-01
2.33          	7.788003e-01
2.34          	7.789036e-01
2.35          	7.790062e-01
2.36          	7.791076e-01
2.37          	7.792081e-01
2.38          	7.793076e-01
2.39          	7.794062e-01
2.4           	7.795039e-01
2.41          	7.796008e-01
2.42          	7.796968e-01
2.43          	7.797917e-01
2.44          	7.798811e-01
2.45          	7.799811e-01
2.46          	7.800747e-01
2.47          	7.801666e-01
2.48          	7.802577e-01
2.49          	7.803480e-01
2.5           	7.804377e-01
2.51          	7.805266e-01
2.52          	7.806149e-01
2.53          	7.807025e-01
2.54          	7.807894e-01
2.55          	7.808755e-01
2.56          	7.809611e-01
2.57          	7.810458e-01
2.58          	7.811300e-01
2.59          	7.812134e-01
2.6           	7.812962e-01
2.61          	7.813783e-01
2.62          	7.814597e-01
2.63          	7.815405e-01
2.64          	7.816207e-01
2.65          	7.817001e-01
2.66          	7.817790e-01
2.67          	7.818572e-01
2.68          	7.819348e-01
2.69          	7.820118e-01
2.7           	7.820882e-01
2.71          	7.821639e-01
2.72          	7.822391e-01
2.73          	7.823136e-01
2.74          	7.823876e-01
2.75          	7.824610e-01
2.76          	7.825338e-01
2.77          	7.826060e-01
2.78          	7.826776e-01
2.79          	7.827487e-01
2.8           	7.828192e-01
2.81          	7.828891e-01
2.82          	7.829585e-01
2.83          	7.830273e-01
2.84          	7.830955e-01
2.85          	7.831631e-01
2.86          	7.832302e-01
2.87          	7.832967e-01
2.88          	7.833625e-01
2.89          	7.834276e-01
2.9           	7.834919e-01
2.91          	7.835553e-01
2.92          	7.836171e-01
2.93          	7.836759e-01
2.94          	7.837239e-01
2.95          	7.837868e-01
2.96          	7.838993e-01
2.97          	7.839634e-01
2.98          	7.840170e-01
2.99          	7.840701e-01
3             	7.841244e-01
3.01          	7.841790e-01
3.02          	7.842313e-01
3.03          	7.842655e-01
3.04          	7.843541e-01
3.05          	7.844282e-01
3.06          	7.844759e-01
3.07          	7.845007e-01
3.08          	7.845984e-01
3.09          	7.846897e-01
3.1           	7.847406e-01
3.11          	7.847865e-01
3.12          	7.848344e-01
3.13          	7.848848e-01
3.14          	7.849368e-01
3.15          	7.849895e-01
3.16          	7.850424e-01
3.17          	7.850952e-01
3.18          	7.851477e-01
3.19          	7.852000e-01
3.2           	7.852520e-01
3.21          	7.853036e-01
3.22          	7.853549e-01
3.23          	7.854058e-01
3.24          	7.854562e-01
3.25          	7.855063e-01
3.26          	7.855558e-01
3.27          	7.856050e-01
3.28          	7.856530e-01
3.29          	7.856999e-01
3.3           	7.857406e-01
3.31          	7.857827e-01
3.32          	7.858601e-01
3.33          	7.859103e-01
3.34          	7.859549e-01
3.35          	7.859992e-01
3.36          	7.860437e-01
3.37          	7.860889e-01
3.38          	7.861341e-01
3.39          	7.861793e-01
3.4           	7.862245e-01
3.41          	7.862694e-01
3.42          	7.863142e-01
3.43          	7.863586e-01
3.44          	7.864028e-01
3.45          	7.864467e-01
3.46          	7.864903e-01
3.47          	7.865337e-01
3.48          	7.865768e-01
3.49          	7.866196e-01
3.5           	7.866621e-01
3.51          	7.867043e-01
3.52          	7.867463e-01
3.53          	7.867879e-01
3.54          	7.868293e-01
3.55          	7.868703e-01
3.56          	7.869109e-01
3.57          	7.869510e-01
3.58          	7.869902e-01
3.59          	7.870278e-01
3.6           	7.870602e-01
3.61          	7.870941e-01
3.62          	7.871719e-01
3.63          	7.872276e-01
3.64          	7.872683e-01
3.65          	7.873083e-01
3.66          	7.873065e-01
3.67          	7.873273e-01
3.68          	7.873637e-01
3.69          	7.874019e-01
3.7           	7.874392e-01
3.71          	7.874756e-01
3.72          	7.875117e-01
3.73          	7.875476e-01
3.74          	7.875832e-01
3.75          	7.876186e-01
3.76          	7.876509e-01
3.77          	7.876446e-01
3.78          	7.877038e-01
3.79          	7.877391e-01
3.8           	7.877709e-01
3.81          	7.878043e-01
3.82          	7.878308e-01
3.83          	7.878736e-01
3.84          	7.879186e-01
3.85          	7.879524e-01
3.86          	7.879841e-01
3.87          	7.880154e-01
3.88          	7.880467e-01
3.89          	7.880780e-01
3.9           	7.881087e-01
3.91          	7.881380e-01
3.92          	7.881706e-01
3.93          	7.882093e-01
3.94          	7.882438e-01
3.95          	7.882803e-01
3.96          	7.883051e-01
3.97          	7.883389e-01
3.98          	7.883693e-01
3.99          	7.883994e-01
4             	7.884291e-01
4.01          	7.884587e-01
4.02          	7.884879e-01
4.03          	7.885171e-01
4.04          	7.885463e-01
4.05          	7.885754e-01
4.06          	7.886042e-01
4.07          	7.886329e-01
4.08          	7.886613e-01
4.09          	7.886895e-01
4.1           	7.887172e-01
4.11          	7.887444e-01
4.12          	7.887740e-01
4.13          	7.888032e-01
4.14          	7.888305e-01
4.15          	7.888572e-01
4.16          	7.888838e-01
4.17          	7.889101e-01
4.18          	7.889356e-01
4.19          	7.889616e-01
4.2           	7.889927e-01
4.21          	7.890195e-01
4.22          	7.890450e-01
4.23          	7.890704e-01
4.24          	7.890958e-01
4.25          	7.891212e-01
4.26          	7.891465e-01
4.27          	7.891717e-01
4.28          	7.891968e-01
4.29          	7.892221e-01
4.3           	7.892472e-01
4.31          	7.892719e-01
4.32          	7.892962e-01
4.33          	7.893202e-01
4.34          	7.893443e-01
4.35          	7.893683e-01
4.36          	7.893922e-01
4.37          	7.894159e-01
4.38          	7.894394e-01
4.39          	7.894628e-01
4.4           	7.894861e-01
4.41          	7.895092e-01
4.42          	7.895322e-01
4.43          	7.895550e-01
4.44          	7.895777e-01
4.45          	7.896003e-01
4.46          	7.896227e-01
4.47          	7.896449e-01
4.48          	7.896671e-01
4.49          	7.896891e-01
4.5           	7.897109e-01
4.51          	7.897326e-01
4.52          	7.897542e-01
4.53          	7.897757e-01
4.54          	7.897970e-01
4.55          	7.898182e-01
4.56          	7.898392e-01
4.57          	7.898601e-01
4.58          	7.898809e-01
4.59          	7.899016e-01
4.6           	7.899222e-01
4.61          	7.899426e-01
4.62          	7.899629e-01
4.63          	7.899830e-01
4.64          	7.900030e-01
4.65          	7.900229e-01
4.66          	7.900428e-01
4.67          	7.900624e-01
4.68          	7.900819e-01
4.69          	7.901013e-01
4.7           	7.901204e-01
4.71          	7.901392e-01
4.72          	7.901582e-01
4.73          	7.901770e-01
4.74          	7.901956e-01
4.75          	7.902137e-01
4.76          	7.902309e-01
4.77          	7.902432e-01
4.78          	7.902703e-01
4.79          	7.902944e-01
4.8           	7.903120e-01
4.81          	7.903291e-01
4.82          	7.903460e-01
4.83          	7.903632e-01
4.84          	7.903805e-01
4.85          	7.903979e-01
4.86          	7.904153e-01
4.87          	7.904326e-01
4.88          	7.904499e-01
4.89          	7.904671e-01
4.9           	7.904841e-01
4.91          	7.905011e-01
4.92          	7.905180e-01
4.93          	7.905349e-01
4.94          	7.905516e-01
4.95          	7.905682e-01
4.96          	7.905847e-01
4.97          	7.906011e-01
4.98          	7.906174e-01
4.99          	7.906337e-01
5             	7.906498e-01
5.01          	7.906659e-01
5.02          	7.906818e-01
5.03          	7.906977e-01
5.04          	7.907134e-01
5.05          	7.907291e-01
5.06          	7.907447e-01
5.07          	7.907602e-01
5.08          	7.907756e-01
5.09          	7.907909e-01
5.1           	7.908061e-01
5.11          	7.908212e-01
5.12          	7.908363e-01
5.13          	7.908512e-01
5.14          	7.908661e-01
5.15          	7.908809e-01
5.16          	7.908956e-01
5.17          	7.909102e-01
5.18          	7.909247e-01
5.19          	7.909389e-01
5.2           	7.909527e-01
5.21          	7.909669e-01
5.22          	7.909811e-01
5.23          	7.909961e-01
5.24          	7.910103e-01
5.25          	7.910241e-01
5.26          	7.910380e-01
5.27          	7.910513e-01
5.28          	7.910649e-01
5.29          	7.910785e-01
5.3           	7.910921e-01
5.31          	7.911050e-01
5.32          	7.911183e-01
5.33          	7.911318e-01
5.34          	7.911451e-01
5.35          	7.911584e-01
5.36          	7.911715e-01
5.37          	7.911845e-01
5.38          	7.911975e-01
5.39          	7.912104e-01
5.4           	7.912232e-01
5.41          	7.912359e-01
5.42          	7.912485e-01
5.43          	7.912611e-01
5.44          	7.912736e-01
5.45          	7.912860e-01
5.46          	7.912984e-01
5.47          	7.913107e-01
5.48          	7.913229e-01
5.49          	7.913350e-01
5.5           	7.913471e-01
5.51          	7.913591e-01
5.52          	7.913711e-01
5.53          	7.913829e-01
5.54          	7.913948e-01
5.55          	7.914065e-01
5.56          	7.914182e-01
5.57          	7.914298e-01
5.58          	7.914413e-01
5.59          	7.914528e-01
5.6           	7.914642e-01
5.61          	7.914755e-01
5.62          	7.914868e-01
5.63          	7.914980e-01
5.64          	7.915092e-01
5.65          	7.915203e-01
5.66          	7.915313e-01
5.67          	7.915423e-01
5.68          	7.915532e-01
5.69          	7.915640e-01
5.7           	7.915748e-01
5.71          	7.915855e-01
5.72          	7.915962e-01
5.73          	7.916068e-01
5.74          	7.916173e-01
5.75          	7.916278e-01
5.76          	7.916383e-01
5.77          	7.916486e-01
5.78          	7.916589e-01
5.79          	7.916692e-01
5.8           	7.916794e-01
5.81          	7.916895e-01
5.82          	7.916996e-01
5.83          	7.917096e-01
5.84          	7.917196e-01
5.85          	7.917295e-01
5.86          	7.917394e-01
5.87          	7.917492e-01
5.88          	7.917590e-01
5.89          	7.917687e-01
5.9           	7.917783e-01
5.91          	7.917879e-01
5.92          	7.917974e-01
5.93          	7.918069e-01
5.94          	7.918163e-01
5.95          	7.918257e-01
5.96          	7.918351e-01
5.97          	7.918443e-01
5.98          	7.918536e-01
5.99          	7.918628e-01
6             	7.918719e-01
6.01          	7.918810e-01
6.02          	7.918900e-01
6.03          	7.918990e-01
6.04          	7.919079e-01
6.05          	7.919168e-01
6.06          	7.919256e-01
6.07          	7.919344e-01
6.08          	7.919431e-01
6.09          	7.919518e-01
6.1           	7.919605e-01
6.11          	7.919691e-01
6.12          	7.919776e-01
6.13          	7.919861e-01
6.14          	7.919946e-01
6.15          	7.920030e-01
6.16          	7.920114e-01
6.17          	7.920197e-01
6.18          	7.920280e-01
6.19          	7.920362e-01
6.2           	7.920445e-01
6.21          	7.920526e-01
6.22          	7.920607e-01
6.23          	7.920688e-01
6.24          	7.920769e-01
6.25          	7.920849e-01
6.26          	7.920928e-01
6.27          	7.921008e-01
6.28          	7.921087e-01
6.29          	7.921167e-01
6.3           	7.921246e-01
6.31          	7.921326e-01
6.32          	7.921406e-01
6.33          	7.921491e-01
6.34          	7.921597e-01
6.35          	7.921661e-01
6.36          	7.921659e-01
6.37          	7.921728e-01
6.38          	7.921813e-01
6.39          	7.921897e-01
6.4           	7.921976e-01
6.41          	7.922053e-01
6.42          	7.922127e-01
6.43          	7.922201e-01
6.44          	7.922273e-01
6.45          	7.922345e-01
6.46          	7.922417e-01
6.47          	7.922488e-01
6.48          	7.922559e-01
6.49          	7.922629e-01
6.5           	7.922706e-01
6.51          	7.922765e-01
6.52          	7.922841e-01
6.53          	7.922906e-01
6.54          	7.922975e-01
6.55          	7.923043e-01
6.56          	7.923110e-01
6.57          	7.923178e-01
6.58          	7.923245e-01
6.59          	7.923311e-01
6.6           	7.923377e-01
6.61          	7.923443e-01
6.62          	7.923508e-01
6.63          	7.923573e-01
6.64          	7.923638e-01
6.65          	7.923703e-01
6.66          	7.923767e-01
6.67          	7.923830e-01
6.68          	7.923894e-01
6.69          	7.923956e-01
6.7           	7.924019e-01
6.71          	7.924081e-01
6.72          	7.924143e-01
6.73          	7.924205e-01
6.74          	7.924266e-01
6.75          	7.924327e-01
6.76          	7.924388e-01
6.77          	7.924448e-01
6.78          	7.924508e-01
6.79          	7.924568e-01
6.8           	7.924627e-01
6.81          	7.924686e-01
6.82          	7.924745e-01
6.83          	7.924803e-01
6.84          	7.924861e-01
6.85          	7.924919e-01
6.86          	7.924976e-01
6.87          	7.925034e-01
6.88          	7.925090e-01
6.89          	7.925147e-01
6.9           	7.925203e-01
6.91          	7.925258e-01
6.92          	7.925314e-01
6.93          	7.925368e-01
6.94          	7.925422e-01
6.95          	7.925476e-01
6.96          	7.925529e-01
6.97          	7.925580e-01
6.98          	7.925628e-01
6.99          	7.925667e-01
7             	7.925736e-01
7.01          	7.925872e-01
7.02          	7.925847e-01
7.03          	7.925963e-01
7.04          	7.925968e-01
7.05          	7.926080e-01
7.06          	7.926041e-01
7.07          	7.926155e-01
7.08          	7.926161e-01
7.09          	7.926272e-01
7.1           	7.926246e-01
7.11          	7.926358e-01
7.12          	7.926360e-01
7.13          	7.926469e-01
7.14          	7.926449e-01
7.15          	7.926559e-01
7.16          	7.926556e-01
7.17          	7.926664e-01
7.18          	7.926647e-01
7.19          	7.926755e-01
7.2           	7.926750e-01
7.21          	7.926856e-01
7.22          	7.926841e-01
7.23          	7.926946e-01
7.24          	7.926940e-01
7.25          	7.927044e-01
7.26          	7.927030e-01
7.27          	7.927134e-01
7.28          	7.927126e-01
7.29          	7.927229e-01
7.3           	7.927216e-01
7.31          	7.927318e-01
7.32          	7.927309e-01
7.33          	7.927410e-01
7.34          	7.927398e-01
7.35          	7.927498e-01
7.36          	7.927488e-01
7.37          	7.927587e-01
7.38          	7.927576e-01
7.39          	7.927674e-01
7.4           	7.927664e-01
7.41          	7.927761e-01
7.42          	7.927750e-01
7.43          	7.927846e-01
7.44          	7.927836e-01
7.45          	7.927931e-01
7.46          	7.927920e-01
7.47          	7.928015e-01
7.48          	7.928004e-01
7.49          	7.928098e-01
7.5           	7.928087e-01
7.51          	7.928179e-01
7.52          	7.928169e-01
7.53          	7.928260e-01
7.54          	7.928249e-01
7.55          	7.928339e-01
7.56          	7.928326e-01
7.57          	7.928413e-01
7.58          	7.928389e-01
7.59          	7.928499e-01
7.6           	7.928506e-01
7.61          	7.928603e-01
7.62          	7.928584e-01
7.63          	7.928667e-01
7.64          	7.928657e-01
7.65          	7.928743e-01
7.66          	7.928732e-01
7.67          	7.928818e-01
7.68          	7.928808e-01
7.69          	7.928893e-01
7.7           	7.928883e-01
7.71          	7.928967e-01
7.72          	7.928957e-01
7.73          	7.929041e-01
7.74          	7.929031e-01
7.75          	7.929114e-01
7.76          	7.929104e-01
7.77          	7.929187e-01
7.78          	7.929176e-01
7.79          	7.929258e-01
7.8           	7.929248e-01
7.81          	7.929329e-01
7.82          	7.929319e-01
7.83          	7.929399e-01
7.84          	7.929389e-01
7.85          	7.929469e-01
7.86          	7.929459e-01
7.87          	7.929538e-01
7.88          	7.929528e-01
7.89          	7.929606e-01
7.9           	7.929596e-01
7.91          	7.929674e-01
7.92          	7.929664e-01
7.93          	7.929740e-01
7.94          	7.929731e-01
7.95          	7.929807e-01
7.96          	7.929797e-01
7.97          	7.929872e-01
7.98          	7.929863e-01
7.99          	7.929937e-01
8             	7.929928e-01
8.01          	7.930002e-01
8.02          	7.929992e-01
8.03          	7.930065e-01
8.04          	7.930056e-01
8.05          	7.930128e-01
8.06          	7.930119e-01
8.07          	7.930191e-01
8.08          	7.930181e-01
8.09          	7.930253e-01
8.1           	7.930243e-01
8.11          	7.930314e-01
8.12          	7.930304e-01
8.13          	7.930375e-01
8.14          	7.930365e-01
8.15          	7.930435e-01
8.16          	7.930425e-01
8.17          	7.930494e-01
8.18          	7.930485e-01
8.19          	7.930553e-01
8.2           	7.930544e-01
8.21          	7.930611e-01
8.22          	7.930602e-01
8.23          	7.930669e-01
8.24          	7.930660e-01
8.25          	7.930726e-01
8.26          	7.930718e-01
8.27          	7.930783e-01
8.28          	7.930774e-01
8.29          	7.930840e-01
8.3           	7.930830e-01
8.31          	7.930895e-01
8.32          	7.930885e-01
8.33          	7.930950e-01
8.34          	7.930941e-01
8.35          	7.931005e-01
8.36          	7.930995e-01
8.37          	7.931058e-01
8.38          	7.931049e-01
8.39          	7.931112e-01
8.4           	7.931103e-01
8.41          	7.931165e-01
8.42          	7.931156e-01
8.43          	7.931218e-01
8.44          	7.931208e-01
8.45          	7.931269e-01
8.46          	7.931260e-01
8.47          	7.931321e-01
8.48          	7.931311e-01
8.49          	7.931372e-01
8.5           	7.931363e-01
8.51          	7.931422e-01
8.52          	7.931413e-01
8.53          	7.931472e-01
8.54          	7.931463e-01
8.55          	7.931522e-01
8.56          	7.931512e-01
8.57          	7.931570e-01
8.58          	7.931562e-01
8.59          	7.931619e-01
8.6           	7.931610e-01
8.61          	7.931667e-01
8.62          	7.931658e-01
8.63          	7.931715e-01
8.64          	7.931706e-01
8.65          	7.931762e-01
8.66          	7.931753e-01
8.67          	7.931808e-01
8.68          	7.931800e-01
8.69          	7.931855e-01
8.7           	7.931846e-01
8.71          	7.931901e-01
8.72          	7.931892e-01
8.73          	7.931946e-01
8.74          	7.931937e-01
8.75          	7.931991e-01
8.76          	7.931982e-01
8.77          	7.932035e-01
8.78          	7.932027e-01
8.79          	7.932079e-01
8.8           	7.932071e-01
8.81          	7.932123e-01
8.82          	7.932115e-01
8.83          	7.932166e-01
8.84          	7.932158e-01
8.85          	7.932209e-01
8.86          	7.932201e-01
8.87          	7.932252e-01
8.88          	7.932243e-01
8.89          	7.932294e-01
8.9           	7.932286e-01
8.91          	7.932335e-01
8.92          	7.932327e-01
8.93          	7.932376e-01
8.94          	7.932368e-01
8.95          	7.932417e-01
8.96          	7.932409e-01
8.97          	7.932458e-01
8.98          	7.932450e-01
8.99          	7.932498e-01
9             	7.932490e-01
9.01          	7.932538e-01
9.02          	7.932530e-01
9.03          	7.932577e-01
9.04          	7.932569e-01
9.05          	7.932616e-01
9.06          	7.932608e-01
9.07          	7.932657e-01
9.08          	7.932644e-01
9.09          	7.932692e-01
9.1           	7.932683e-01
9.11          	7.932732e-01
9.12          	7.932721e-01
9.13          	7.932769e-01
9.14          	7.932758e-01
9.15          	7.932806e-01
9.16          	7.932796e-01
9.17          	7.932843e-01
9.18          	7.932832e-01
9.19          	7.932879e-01
9.2           	7.932870e-01
9.21          	7.932915e-01
9.22          	7.932905e-01
9.23          	7.932951e-01
9.24          	7.932989e-01
9.25          	7.932934e-01
9.26          	7.932981e-01
9.27          	7.933022e-01
9.28          	7.933061e-01
9.29          	7.933009e-01
9.3           	7.933055e-01
9.31          	7.933094e-01
9.32          	7.933084e-01
9.33          	7.933128e-01
9.34          	7.933115e-01
9.35          	7.933158e-01
9.36          	7.933194e-01
9.37          	7.933144e-01
9.38          	7.933188e-01
9.39          	7.933227e-01
9.4           	7.933264e-01
9.41          	7.933213e-01
9.42          	7.933256e-01
9.43          	7.933294e-01
9.44          	7.933286e-01
9.45          	7.933326e-01
9.46          	7.933359e-01
9.47          	7.933302e-01
9.48          	7.933344e-01
9.49          	7.933382e-01
9.5           	7.933423e-01
9.51          	7.933375e-01
9.52          	7.933416e-01
9.53          	7.933452e-01
9.54          	7.933438e-01
9.55          	7.933477e-01
9.56          	7.933510e-01
9.57          	7.933461e-01
9.58          	7.933500e-01
9.59          	7.933537e-01
9.6           	7.933575e-01
9.61          	7.933520e-01
9.62          	7.933559e-01
9.63          	7.933595e-01
9.64          	7.933630e-01
9.65          	7.933587e-01
9.66          	7.933625e-01
9.67          	7.933659e-01
9.68          	7.933647e-01
9.69          	7.933684e-01
9.7           	7.933715e-01
9.71          	7.933670e-01
9.72          	7.933708e-01
9.73          	7.933742e-01
9.74          	7.933779e-01
9.75          	7.933724e-01
9.76          	7.933761e-01
9.77          	7.933797e-01
9.78          	7.933827e-01
9.79          	7.933786e-01
9.8           	7.933823e-01
9.81          	7.933855e-01
9.82          	7.933890e-01
9.83          	7.933830e-01
9.84          	7.933866e-01
9.85          	7.933901e-01
9.86          	7.933932e-01
9.87          	7.933902e-01
9.88          	7.933938e-01
9.89          	7.933967e-01
9.9           	7.934001e-01
9.91          	7.933926e-01
9.92          	7.933961e-01
9.93          	7.933996e-01
9.94          	7.934027e-01
9.95          	7.934061e-01
9.96          	7.934007e-01
9.97          	7.934041e-01
9.98          	7.934073e-01
9.99          	7.934101e-01
10            	7.934063e-01
10.01         	7.934097e-01
10.02         	7.934126e-01
10.03         	7.934158e-01
10.04         	7.934103e-01
10.05         	7.934136e-01
10.06         	7.934168e-01
10.07         	7.934195e-01
10.08         	7.934226e-01
10.09         	7.934151e-01
10.1          	7.934184e-01
10.11         	7.934216e-01
10.12         	7.934245e-01
10.13         	7.934276e-01
10.14         	7.934232e-01
10.15         	7.934264e-01
10.16         	7.934294e-01
10.17         	7.934316e-01
10.18         	7.934347e-01
10.19         	7.934256e-01
10.2          	7.934289e-01
10.21         	7.934370e-01
10.22         	7.934344e-01
10.23         	7.934375e-01
10.24         	7.934397e-01
10.25         	7.934349e-01
10.26         	7.934380e-01
10.27         	7.934407e-01
10.28         	7.934436e-01
10.29         	7.934456e-01
10.3          	7.934397e-01
10.31         	7.934431e-01
10.32         	7.934458e-01
10.33         	7.934486e-01
10.34         	7.934506e-01
10.35         	7.934534e-01
10.36         	7.934442e-01
10.37         	7.934473e-01
10.38         	7.934555e-01
10.39         	7.934528e-01
10.4          	7.934556e-01
10.41         	7.934576e-01
10.42         	7.934603e-01
10.43         	7.934518e-01
10.44         	7.934547e-01
10.45         	7.934576e-01
10.46         	7.934603e-01
10.47         	7.934631e-01
10.48         	7.934652e-01
10.49         	7.934677e-01
10.5          	7.934590e-01
10.51         	7.934618e-01
10.52         	7.934646e-01
10.53         	7.934673e-01
10.54         	7.934699e-01
10.55         	7.934719e-01
10.56         	7.934744e-01
10.57         	7.934659e-01
10.58         	7.934686e-01
10.59         	7.934713e-01
10.6          	7.934739e-01
10.61         	7.934765e-01
10.62         	7.934784e-01
10.63         	7.934808e-01
10.64         	7.934727e-01
10.65         	7.934754e-01
10.66         	7.934780e-01
10.67         	7.934805e-01