/*--------------------------------*- C++ -*----------------------------------*\
  =========                 |
  \\      /  F ield         | OpenFOAM: The Open Source CFD Toolbox
   \\    /   O peration     | Website:  https://openfoam.org
    \\  /    A nd           | Version:  13
     \\/     M anipulation  |
\*---------------------------------------------------------------------------*/
FoamFile
{
    format      ascii;
    class       volScalarField;
    location    "33";
    object      p;
}
// * * * * * * * * * * * * * * * * * * * * * * * * * * * * * * * * * * * * * //

dimensions      [0 2 -2 0 0 0 0];

internalField   nonuniform List<scalar> 
400
(
2.12061e-07
-0.000572299
-0.0012159
-0.00171877
-0.0019591
-0.00188458
-0.00147038
-0.000705426
0.000401402
0.00180606
0.0034148
0.00507512
0.00659115
0.00775121
0.00837991
0.00839574
0.00785545
0.00696901
0.00604812
0.00549444
0.000570069
-2.01976e-05
-0.000569581
-0.000956947
-0.00113192
-0.00106187
-0.000725873
-0.000109141
0.000788872
0.00193955
0.00326989
0.00466023
0.00594081
0.00692992
0.00747436
0.0075019
0.00705933
0.00631895
0.00554337
0.00497275
0.00124581
0.00049309
-8.66134e-05
-0.000441267
-0.000606056
-0.000576195
-0.000337179
0.000132691
0.000849794
0.00180699
0.00295495
0.0041919
0.00536455
0.00629393
0.00681937
0.00685302
0.00642087
0.0056683
0.00480905
0.0040373
0.0017407
0.000763804
7.37717e-05
-0.000321835
-0.000537021
-0.000592638
-0.000478135
-0.000160059
0.00040013
0.00122219
0.00228179
0.00349298
0.00470183
0.00570986
0.00631953
0.00639829
0.00593364
0.0050507
0.00394853
0.00284456
0.00179559
0.000595844
-0.000227583
-0.000704711
-0.00101803
-0.00120713
-0.00125926
-0.0011229
-0.000730387
-2.77115e-05
0.000991875
0.00226373
0.0036302
0.00486139
0.00569882
0.00593247
0.00548055
0.00443563
0.00300008
0.00146223
0.00119483
-0.000202896
-0.00116316
-0.00175258
-0.00221129
-0.00259054
-0.00286914
-0.00297108
-0.0027918
-0.00223279
-0.00124392
0.000150667
0.001793
0.00341999
0.00469038
0.00527489
0.00497206
0.00380584
0.00197917
-0.000103894
-0.000241487
-0.00179995
-0.00289211
-0.00362207
-0.00427756
-0.00491649
-0.00550493
-0.00593739
-0.00606441
-0.0057283
-0.00480676
-0.00328502
-0.00127018
0.000946855
0.00292645
0.00417003
0.00427943
0.00313571
0.000902774
-0.00185609
-0.0026518
-0.0043262
-0.0055411
-0.00643912
-0.00734695
-0.00832757
-0.00933372
-0.0102286
-0.0108111
-0.0108503
-0.0101334
-0.00853883
-0.00610689
-0.00311209
-8.62595e-05
0.00225521
0.00321282
0.00239545
-0.000177203
-0.00375279
-0.0061212
-0.00786154
-0.00918457
-0.0102716
-0.0114828
-0.0128891
-0.0144342
-0.0159527
-0.0171894
-0.0178275
-0.0175352
-0.0160426
-0.0132529
-0.00935733
-0.00493586
-0.000941246
0.00150825
0.00155474
-0.00113699
-0.00564664
-0.0106713
-0.0124235
-0.0138273
-0.0151019
-0.016642
-0.0185356
-0.0207269
-0.0230303
-0.0251402
-0.026649
-0.0270839
-0.0259774
-0.0230341
-0.0182539
-0.0121676
-0.00592198
-0.00114213
0.000603182
-0.00173123
-0.00719499
-0.0162603
-0.0179652
-0.0193955
-0.020806
-0.0226413
-0.0250232
-0.0279111
-0.0311113
-0.0342773
-0.0369137
-0.0383951
-0.0380065
-0.0352839
-0.0298334
-0.022005
-0.0130063
-0.00495966
-0.000375414
-0.00151588
-0.00772052
-0.0228027
-0.0243898
-0.0257425
-0.0271482
-0.0291433
-0.0319104
-0.0354422
-0.0395492
-0.0438547
-0.0477844
-0.0505798
-0.051377
-0.0491632
-0.0433938
-0.0339887
-0.0219775
-0.00980578
-0.00102462
0.000280194
-0.00599985
-0.0302224
-0.031586
-0.0326694
-0.0337918
-0.0356679
-0.0385797
-0.0425688
-0.0474548
-0.0528341
-0.0580625
-0.0622508
-0.0643104
-0.0630221
-0.0573318
-0.0466927
-0.0317048
-0.0148009
-0.000416925
0.00496575
2.29532e-05
-0.0385598
-0.0394892
-0.039961
-0.0403267
-0.0416348
-0.0443094
-0.0484454
-0.0538591
-0.0601057
-0.0664652
-0.0719292
-0.0752213
-0.0748702
-0.0694212
-0.0578068
-0.0400019
-0.0180231
0.00327969
0.0146987
0.0135559
-0.0481746
-0.0481568
-0.0474033
-0.0462839
-0.0464119
-0.0483711
-0.0522813
-0.0579129
-0.0647392
-0.0719352
-0.0783605
-0.0825611
-0.082832
-0.0773737
-0.0646451
-0.0439368
-0.0165433
0.013019
0.0329312
0.0392809
-0.0602348
-0.0579575
-0.054867
-0.0512133
-0.049427
-0.0501782
-0.0535202
-0.0590935
-0.0662199
-0.0739186
-0.0808793
-0.0854533
-0.0857068
-0.0795197
-0.0649418
-0.0406111
-0.00697871
0.032817
0.0647939
0.083677
-0.0774812
-0.069473
-0.0620873
-0.0545493
-0.0501388
-0.0493249
-0.0519043
-0.0572609
-0.064486
-0.0723848
-0.0794398
-0.0837782
-0.0832183
-0.0752828
-0.0576213
-0.0282111
0.0133526
0.0666611
0.115752
0.154807
-0.108925
-0.0850399
-0.0697732
-0.0563914
-0.0485409
-0.045881
-0.0476241
-0.0527149
-0.059917
-0.0677769
-0.0745522
-0.0781399
-0.0761042
-0.0655424
-0.0436431
-0.00744495
0.0447433
0.114933
0.188078
0.263281
-0.168693
-0.100746
-0.073093
-0.052288
-0.0413101
-0.0376996
-0.0394419
-0.0448653
-0.0524156
-0.0604468
-0.0670738
-0.0700477
-0.0666874
-0.0537883
-0.0278897
0.01541
0.0800717
0.17276
0.285855
0.445986
-0.402754
-0.139031
-0.073459
-0.04473
-0.0305717
-0.0266174
-0.0290855
-0.0353734
-0.0436539
-0.0522072
-0.0591239
-0.0621454
-0.0586174
-0.0452139
-0.0174507
0.0310788
0.108496
0.236657
0.427487
0.79368
)
;

boundaryField
{
    movingWall
    {
        type            zeroGradient;
    }
    fixedWalls
    {
        type            zeroGradient;
    }
    frontAndBack
    {
        type            empty;
    }
}


// ************************************************************************* //
