/*--------------------------------*- C++ -*----------------------------------*\
  =========                 |
  \\      /  F ield         | OpenFOAM: The Open Source CFD Toolbox
   \\    /   O peration     | Website:  https://openfoam.org
    \\  /    A nd           | Version:  13
     \\/     M anipulation  |
\*---------------------------------------------------------------------------*/
FoamFile
{
    format      ascii;
    class       volScalarField;
    location    "17";
    object      p;
}
// * * * * * * * * * * * * * * * * * * * * * * * * * * * * * * * * * * * * * //

dimensions      [0 2 -2 0 0 0 0];

internalField   nonuniform List<scalar> 
400
(
-6.83039e-07
-0.000573271
-0.00121637
-0.00171857
-0.00195819
-0.001883
-0.00146824
-0.000702971
0.000403898
0.00180833
0.00341665
0.00507649
0.00659217
0.00775216
0.0083812
0.00839778
0.00785851
0.00697315
0.00605297
0.00549961
0.00056801
-2.19175e-05
-0.000570786
-0.000957555
-0.00113185
-0.00106107
-0.000724397
-0.000107149
0.000791158
0.00194189
0.00327209
0.00466219
0.00594258
0.00693171
0.00747647
0.00750467
0.00706297
0.00632348
0.00554853
0.00497822
0.0012425
0.000490455
-8.86301e-05
-0.000442629
-0.000606643
-0.000575922
-0.000336046
0.000134587
0.000852264
0.00180979
0.00295783
0.00419468
0.0053672
0.00629661
0.00682233
0.00685657
0.00642521
0.00567348
0.00481489
0.00404354
0.00173632
0.000760361
7.1141e-05
-0.000323664
-0.000537898
-0.000592424
-0.000476769
-0.000157602
0.000403475
0.00122612
0.00228597
0.00349712
0.0047058
0.00571373
0.00632354
0.00640276
0.00593885
0.00505675
0.00395537
0.00285199
0.00179062
0.000592045
-0.000230384
-0.000706527
-0.00101864
-0.0012063
-0.00125687
-0.00111898
-0.000725191
-2.16275e-05
0.000998356
0.00227019
0.00363635
0.00486718
0.00570445
0.00593828
0.00548692
0.00444283
0.00300818
0.00147115
0.00119002
-0.000206359
-0.00116547
-0.00175369
-0.00221085
-0.00258821
-0.0028647
-0.00296457
-0.00278353
-0.00222328
-0.00123392
0.000160722
0.00180252
0.00342875
0.00469846
0.00528266
0.00498002
0.00381446
0.00198877
-9.32441e-05
-0.000245148
-0.00180224
-0.00289313
-0.00362163
-0.00427515
-0.00491162
-0.00549731
-0.00592705
-0.00605172
-0.0057139
-0.00479142
-0.00326981
-0.00125581
0.000959915
0.0029381
0.00418058
0.00428952
0.00314609
0.000914097
-0.00184353
-0.00265329
-0.00432641
-0.00553997
-0.00643625
-0.00734162
-0.00831915
-0.00932184
-0.0102132
-0.0107927
-0.0108297
-0.0101116
-0.00851708
-0.00608625
-0.00309336
-6.98247e-05
0.00226951
0.0032257
0.00240794
-0.000164021
-0.00373826
-0.00611961
-0.00785887
-0.00918053
-0.0102656
-0.0114738
-0.0128764
-0.0144174
-0.0159316
-0.0171647
-0.0177999
-0.0175061
-0.0160134
-0.0132251
-0.00933193
-0.00491365
-0.000922316
0.00152454
0.00156965
-0.00112192
-0.00563028
-0.010666
-0.0124174
-0.0138199
-0.0150922
-0.016629
-0.0185184
-0.0207049
-0.0230034
-0.0251091
-0.0266147
-0.0270479
-0.025941
-0.0229991
-0.0182218
-0.0121394
-0.00589806
-0.0011221
0.000620627
-0.00171446
-0.00717723
-0.0162509
-0.0179554
-0.0193846
-0.0207928
-0.0226246
-0.0250018
-0.0278845
-0.0310794
-0.0342408
-0.0368738
-0.0383532
-0.037962
-0.0352431
-0.0297959
-0.0219719
-0.0129781
-0.0049363
-0.000355765
-0.00149791
-0.00770218
-0.0227894
-0.0243767
-0.0257285
-0.0271321
-0.0291237
-0.0318861
-0.0354125
-0.0395141
-0.043815
-0.0477414
-0.0505353
-0.051335
-0.0491211
-0.0433547
-0.0339539
-0.0219475
-0.00978074
-0.00100389
0.000298347
-0.00598219
-0.0302058
-0.0315702
-0.0326532
-0.033774
-0.0356468
-0.0385541
-0.0425379
-0.0474187
-0.0527936
-0.058019
-0.0622062
-0.064267
-0.0629813
-0.0572949
-0.04666
-0.0316766
-0.0147772
-0.000397218
0.0049825
3.82395e-05
-0.0385411
-0.0394718
-0.0399439
-0.0403086
-0.0416141
-0.0442846
-0.0484156
-0.0538244
-0.0600669
-0.0664241
-0.071888
-0.0751821
-0.0748346
-0.0693903
-0.0577805
-0.0399797
-0.0180044
0.00329546
0.0147119
0.0135669
-0.0481552
-0.0481391
-0.0473868
-0.0462675
-0.0463936
-0.0483492
-0.0522546
-0.0578815
-0.0647039
-0.0718981
-0.0783239
-0.0825276
-0.0828034
-0.0773507
-0.0646276
-0.0439235
-0.0165328
0.0130279
0.0329386
0.0392861
-0.0602164
-0.0579414
-0.054853
-0.0512003
-0.049413
-0.050161
-0.0534981
-0.0590665
-0.066189
-0.073886
-0.0808478
-0.0854255
-0.0856849
-0.0795046
-0.0649332
-0.0406074
-0.00697777
0.0328171
0.0647937
0.0836755
-0.077466
-0.0694604
-0.0620777
-0.0545416
-0.0501306
-0.0493133
-0.0518876
-0.0572388
-0.0644597
-0.0723566
-0.0794127
-0.0837552
-0.0832016
-0.0752738
-0.0576196
-0.0282153
0.0133449
0.0666534
0.115745
0.154799
-0.108915
-0.0850322
-0.0697692
-0.0563899
-0.0485388
-0.0458752
-0.0476126
-0.0526974
-0.0598948
-0.0677524
-0.0745286
-0.0781202
-0.0760908
-0.0655368
-0.0436453
-0.00745343
0.0447308
0.114919
0.188066
0.263268
-0.168687
-0.100742
-0.0730935
-0.0522911
-0.0413125
-0.037698
-0.0394344
-0.0448515
-0.0523968
-0.0604253
-0.0670526
-0.0700299
-0.0666758
-0.0537836
-0.0278925
0.0154008
0.0800583
0.172745
0.285839
0.445971
-0.402748
-0.139028
-0.0734608
-0.0447348
-0.030576
-0.0266181
-0.0290803
-0.0353619
-0.0436372
-0.0521875
-0.0591038
-0.062128
-0.0586048
-0.0452083
-0.0174522
0.0310711
0.108484
0.236643
0.427473
0.793666
)
;

boundaryField
{
    movingWall
    {
        type            zeroGradient;
    }
    fixedWalls
    {
        type            zeroGradient;
    }
    frontAndBack
    {
        type            empty;
    }
}


// ************************************************************************* //
