/*--------------------------------*- C++ -*----------------------------------*\
  =========                 |
  \\      /  F ield         | OpenFOAM: The Open Source CFD Toolbox
   \\    /   O peration     | Website:  https://openfoam.org
    \\  /    A nd           | Version:  13
     \\/     M anipulation  |
\*---------------------------------------------------------------------------*/
FoamFile
{
    format      ascii;
    class       surfaceScalarField;
    location    "17";
    object      phi;
}
// * * * * * * * * * * * * * * * * * * * * * * * * * * * * * * * * * * * * * //

dimensions      [0 3 -1 0 0 0 0];

internalField   nonuniform List<scalar> 
760
(
4.38167e-06
-4.37436e-06
-3.8969e-05
4.33511e-05
-0.00013109
9.21209e-05
-0.000256427
0.000125337
-0.000399217
0.00014279
-0.000546015
0.000146798
-0.000684894
0.000138879
-0.0008041
0.000119206
-0.000891486
8.73862e-05
-0.000935216
4.37303e-05
-0.000925594
-9.62238e-06
-0.000858002
-6.75917e-05
-0.000735491
-0.000122511
-0.000570794
-0.000164698
-0.000386105
-0.000184689
-0.000210042
-0.000176062
-7.16938e-05
-0.000138348
7.4714e-06
-7.91652e-05
2.35639e-05
-1.60924e-05
2.3564e-05
-4.70462e-05
4.26722e-05
-0.000209846
0.000206151
-0.000473417
0.000355692
-0.000805367
0.000457287
-0.00117182
0.00050924
-0.00154133
0.000516314
-0.00188445
0.000481996
-0.00217233
0.000407085
-0.00237669
0.000291745
-0.00247185
0.000138891
-0.00243886
-4.26162e-05
-0.00227013
-0.000236316
-0.00197509
-0.000417549
-0.00158265
-0.000557144
-0.00114053
-0.000626811
-0.000709231
-0.000607356
-0.00035034
-0.000497239
-0.000110629
-0.000318877
-5.69926e-06
-0.000121023
1.78648e-05
-0.000111353
0.000154025
-0.000404957
0.000499755
-0.000833998
0.000784733
-0.00134916
0.00097245
-0.0019036
0.00106368
-0.00245389
0.0010666
-0.00295879
0.000986894
-0.00337806
0.000826356
-0.00367306
0.000586749
-0.00380964
0.000275471
-0.00376306
-8.92007e-05
-0.00352387
-0.000475508
-0.00310389
-0.00083753
-0.00254
-0.00112103
-0.00189408
-0.00127274
-0.00124667
-0.00125476
-0.000683199
-0.00106071
-0.000273804
-0.000728271
-5.21123e-05
-0.000342715
-3.42475e-05
-0.000173004
0.000327029
-0.000593134
0.000919885
-0.00117834
0.00136994
-0.00186038
0.00165448
-0.00258105
0.00178435
-0.00328863
0.00177419
-0.00393456
0.00163283
-0.00447164
0.00136344
-0.00485456
0.000969665
-0.00504282
0.000463737
-0.00500578
-0.000126243
-0.00472877
-0.000752519
-0.00422014
-0.00134616
-0.00351697
-0.00182419
-0.00268787
-0.00210184
-0.00182912
-0.00211351
-0.00105111
-0.00183872
-0.000454388
-0.001325
-0.000101929
-0.000695174
-0.000136177
-0.000228072
0.000555101
-0.000762951
0.00145476
-0.00148977
0.00209676
-0.00232198
0.0024867
-0.00319168
0.00265405
-0.00404167
0.00262418
-0.00481957
0.00241072
-0.00547456
0.00201843
-0.00595701
0.00145212
-0.00622066
0.000727383
-0.00622702
-0.000119879
-0.00595138
-0.00102816
-0.00539144
-0.0019061
-0.00457619
-0.00263945
-0.0035738
-0.00310423
-0.00249353
-0.00319377
-0.00147502
-0.00285723
-0.000660648
-0.00213937
-0.000156529
-0.00119929
-0.000292706
-0.000274519
0.000829621
-0.00090736
0.0020876
-0.00175604
0.00294544
-0.00271846
0.00344911
-0.00371928
0.00365487
-0.0046985
0.0036034
-0.0056029
0.00331513
-0.00638092
0.00279644
-0.00698056
0.00205177
-0.00735004
0.00109686
-0.00744125
-2.86744e-05
-0.00721434
-0.00125507
-0.00664917
-0.00247127
-0.00575705
-0.00353157
-0.00459628
-0.004265
-0.00328337
-0.00450669
-0.00198994
-0.00415065
-0.000913682
-0.00321564
-0.000223152
-0.00188982
-0.000515858
-0.00031043
0.00114005
-0.00102
0.00279717
-0.00196528
0.00389072
-0.00303246
0.00451629
-0.00414148
0.00476389
-0.00523217
0.00469409
-0.00625334
0.0043363
-0.0071555
0.0036986
-0.00788671
0.00278298
-0.00839107
0.00160123
-0.00860937
0.000189626
-0.00848542
-0.00137902
-0.00797381
-0.00298288
-0.00705807
-0.00444731
-0.00577346
-0.00554961
-0.0042314
-0.00604875
-0.00263155
-0.0057505
-0.00123894
-0.00460825
-0.000311257
-0.00281751
-0.000827115
-0.000333895
0.00147395
-0.00109472
0.003558
-0.00210546
0.00490146
-0.00324466
0.00565549
-0.00443025
0.00594948
-0.00560436
0.0058682
-0.0067206
0.00545254
-0.00773471
0.00471271
-0.00859813
0.00364639
-0.00925398
0.00225708
-0.00963541
0.000571064
-0.00966853
-0.0013459
-0.00928055
-0.00337087
-0.00841789
-0.00530996
-0.00707642
-0.00689108
-0.00534144
-0.00778373
-0.00342422
-0.00766772
-0.00166101
-0.00637146
-0.000431392
-0.00404712
-0.00125851
-0.000343663
0.00181761
-0.00112702
0.00434136
-0.00216655
0.00594099
-0.00333675
0.00682569
-0.00455591
0.00716864
-0.00577065
0.00708294
-0.00694203
0.00662392
-0.00803448
0.00580516
-0.00900734
0.00461925
-0.00980825
0.00305799
-0.0103686
0.00113146
-0.0106025
-0.00111202
-0.0104117
-0.00356171
-0.00970049
-0.00602116
-0.00840919
-0.00818237
-0.00656827
-0.00962465
-0.0043672
-0.0098688
-0.00219848
-0.00854018
-0.000594908
-0.00565069
-0.00185341
-0.000340282
0.00215789
-0.00111672
0.00511779
-0.00214463
0.0069689
-0.00329706
0.00797813
-0.00449456
0.00836614
-0.00569018
0.00827857
-0.00685497
0.00778871
-0.00796567
0.00691586
-0.00899473
0.0056483
-0.00990166
0.00396493
-0.0106255
0.00185529
-0.0110782
-0.000659335
-0.0111461
-0.00349382
-0.0106941
-0.00647316
-0.00959655
-0.00927989
-0.00779851
-0.0114227
-0.0054174
-0.0122499
-0.0028563
-0.0111013
-0.000813559
-0.00769343
-0.00266697
-0.00032766
0.00248555
-0.00107154
0.00586167
-0.00204733
0.00794469
-0.00312777
0.00905857
-0.00423758
0.00947594
-0.00533847
0.00937946
-0.00641401
0.00886424
-0.00745669
0.00795855
-0.00845718
0.00664879
-0.00939451
0.00490225
-0.0102267
0.00268747
-0.0108747
-1.12755e-05
-0.0112314
-0.00313713
-0.0111324
-0.00657215
-0.0103894
-0.0100229
-0.00883985
-0.0129723
-0.00647084
-0.0146189
-0.00361361
-0.0139585
-0.00109797
-0.0102091
-0.00376494
-0.000315114
0.00280067
-0.0010113
0.00655785
-0.0018995
0.00883288
-0.00285199
0.0100111
-0.00380074
0.0104247
-0.0047196
0.0102983
-0.00560768
0.00975233
-0.00647615
0.00882702
-0.00733763
0.00751026
-0.00819652
0.00576114
-0.00903799
0.00352894
-0.00982004
0.000770776
-0.0104401
-0.00251707
-0.0107428
-0.00626943
-0.0104964
-0.0102694
-0.00942939
-0.0140392
-0.0073501
-0.0166982
-0.0044072
-0.0169014
-0.00145358
-0.0131627
-0.00521853
-0.000320374
0.00312104
-0.000972653
0.00721013
-0.0017481
0.00960833
-0.00251834
0.0107813
-0.003229
0.0111354
-0.00387246
0.0109418
-0.00446783
0.0103477
-0.00504754
0.00940673
-0.00564805
0.00811077
-0.0063018
0.00641489
-0.00702795
0.00425509
-0.00781993
0.00156275
-0.00862193
-0.00171507
-0.0093059
-0.00558546
-0.00963739
-0.00993789
-0.00926683
-0.0144098
-0.00780758
-0.0181575
-0.00511454
-0.0195944
-0.00187235
-0.0164049
-0.00709087
-0.000374391
0.00349543
-0.00101417
0.00784991
-0.00166409
0.0102582
-0.00219865
0.0113159
-0.0025906
0.0115273
-0.00286209
0.0112133
-0.00305873
0.0105443
-0.00323656
0.00958457
-0.00345538
0.00832959
-0.00377399
0.0067335
-0.00424432
0.00472542
-0.00490158
0.00222001
-0.00574506
-0.000871594
-0.00670711
-0.00462341
-0.00760157
-0.00904343
-0.0080638
-0.0139476
-0.00754806
-0.0186732
-0.00554288
-0.0215996
-0.0023188
-0.019629
-0.00940967
-0.000529834
0.00402526
-0.00121987
0.00853995
-0.00173434
0.0107727
-0.00196811
0.0115496
-0.00194705
0.0115062
-0.00174101
0.0110072
-0.0014309
0.0102342
-0.00109846
0.00925212
-0.000824456
0.0080556
-0.000688965
0.00659801
-0.000770324
0.00480678
-0.00114113
0.00259082
-0.00185698
-0.00015575
-0.00292899
-0.00355139
-0.00426799
-0.00770443
-0.00558029
-0.0126353
-0.00625706
-0.0179964
-0.00542677
-0.0224299
-0.00270937
-0.0223464
-0.012119
-0.00086913
0.00489439
-0.00168537
0.00935619
-0.00201572
0.0111031
-0.0018306
0.0113645
-0.00125665
0.0109323
-0.000436903
0.0101875
0.000502931
0.0092944
0.00145529
0.00829976
0.00232294
0.00718794
0.00301201
0.00590895
0.00342681
0.00439197
0.00346779
0.00254985
0.00303328
0.000278752
0.00203563
-0.00255374
0.000440827
-0.00610963
-0.00161267
-0.0105818
-0.0036029
-0.0160062
-0.00441645
-0.0216164
-0.00288117
-0.0238816
-0.0150002
-0.00149506
0.00638945
-0.00241226
0.0102734
-0.00233293
0.0110237
-0.001454
0.0104856
-7.99869e-05
0.00955827
0.00154871
0.00855878
0.00326164
0.00758147
0.00493428
0.00662712
0.00646486
0.00565737
0.00775782
0.00461598
0.00871301
0.00343678
0.00921831
0.00204455
0.00914348
0.000353584
0.00834636
-0.00175662
0.00668072
-0.00444399
0.00408645
-0.00798749
0.00083907
-0.0127588
-0.00200621
-0.0187711
-0.0025033
-0.0233846
-0.0175035
-0.00234113
0.00873058
-0.00282045
0.0107527
-0.00158663
0.00978991
0.000571827
0.00832713
0.00311845
0.00701165
0.0057544
0.00592283
0.00831345
0.00502242
0.0106946
0.00424599
0.0128217
0.0035302
0.0146209
0.00281681
0.0160068
0.00205092
0.0168735
0.00117783
0.0170849
0.000142211
0.0164785
-0.00115024
0.0148399
-0.00280542
0.0119339
-0.00508144
0.00764862
-0.00847357
0.00261123
-0.0137337
-0.000908866
-0.0198645
-0.0184124
-0.00200254
0.0107331
0.000357675
0.0083925
0.00431869
0.00582889
0.00833304
0.00431279
0.0120903
0.00325436
0.015492
0.00252116
0.0185155
0.00199887
0.0211616
0.00159989
0.0234251
0.00126674
0.0252823
0.000959669
0.0266848
0.000648362
0.027554
0.000308642
0.0277804
-8.4152e-05
0.0272118
-0.000581631
0.0256265
-0.00122013
0.022695
-0.00214999
0.0179506
-0.00372915
0.0109497
-0.00673277
0.00302447
-0.0119393
-0.0153879
0.0107331
0.0191256
0.0249545
0.0292673
0.0325217
0.0350428
0.0370417
0.0386416
0.0399083
0.040868
0.0415164
0.041825
0.0417408
0.0411592
0.0399391
0.0377891
0.0340599
0.0273272
0.0153879
)
;

boundaryField
{
    movingWall
    {
        type            calculated;
        value           uniform 0;
    }
    fixedWalls
    {
        type            calculated;
        value           uniform 0;
    }
    frontAndBack
    {
        type            empty;
    }
}


// ************************************************************************* //
