/*--------------------------------*- C++ -*----------------------------------*\
  =========                 |
  \\      /  F ield         | OpenFOAM: The Open Source CFD Toolbox
   \\    /   O peration     | Website:  https://openfoam.org
    \\  /    A nd           | Version:  13
     \\/     M anipulation  |
\*---------------------------------------------------------------------------*/
FoamFile
{
    format      ascii;
    class       surfaceScalarField;
    location    "17";
    object      phi_0;
}
// * * * * * * * * * * * * * * * * * * * * * * * * * * * * * * * * * * * * * //

dimensions      [0 3 -1 0 0 0 0];

internalField   nonuniform List<scalar> 
760
(
4.37778e-06
-4.37807e-06
-3.89718e-05
4.33493e-05
-0.000131091
9.212e-05
-0.000256428
0.000125336
-0.000399217
0.000142789
-0.000546014
0.000146798
-0.000684892
0.000138878
-0.000804098
0.000119205
-0.000891484
8.73859e-05
-0.000935214
4.37301e-05
-0.000925591
-9.62228e-06
-0.000858
-6.75914e-05
-0.00073549
-0.00012251
-0.000570793
-0.000164697
-0.000386104
-0.000184689
-0.000210042
-0.000176062
-7.16943e-05
-0.000138348
7.471e-06
-7.91651e-05
2.35637e-05
-1.60925e-05
2.35639e-05
-4.70478e-05
4.26696e-05
-0.000209847
0.000206149
-0.000473417
0.000355689
-0.000805365
0.000457285
-0.00117181
0.000509237
-0.00154133
0.000516312
-0.00188444
0.000481995
-0.00217232
0.000407083
-0.00237668
0.000291745
-0.00247184
0.00013889
-0.00243885
-4.26156e-05
-0.00227012
-0.000236314
-0.00197509
-0.000417547
-0.00158264
-0.000557141
-0.00114052
-0.000626809
-0.00070923
-0.000607354
-0.00035034
-0.000497238
-0.000110629
-0.000318876
-5.69944e-06
-0.000121023
1.78646e-05
-0.000111353
0.000154023
-0.000404957
0.000499752
-0.000833996
0.000784729
-0.00134916
0.000972446
-0.00190359
0.00106367
-0.00245388
0.0010666
-0.00295878
0.00098689
-0.00337805
0.000826353
-0.00367305
0.000586747
-0.00380963
0.00027547
-0.00376305
-8.91994e-05
-0.00352386
-0.000475506
-0.00310388
-0.000837526
-0.00253999
-0.00112102
-0.00189407
-0.00127273
-0.00124667
-0.00125476
-0.000683198
-0.0010607
-0.000273804
-0.00072827
-5.21123e-05
-0.000342715
-3.42478e-05
-0.000173004
0.000327027
-0.000593132
0.00091988
-0.00117834
0.00136994
-0.00186037
0.00165448
-0.00258104
0.00178434
-0.00328861
0.00177418
-0.00393454
0.00163282
-0.00447162
0.00136343
-0.00485454
0.000969663
-0.00504281
0.000463737
-0.00500577
-0.000126241
-0.00472876
-0.000752515
-0.00422013
-0.00134616
-0.00351696
-0.00182419
-0.00268786
-0.00210183
-0.00182912
-0.0021135
-0.00105111
-0.00183871
-0.000454387
-0.00132499
-0.000101929
-0.000695173
-0.000136177
-0.000228071
0.000555098
-0.000762948
0.00145476
-0.00148976
0.00209675
-0.00232197
0.00248668
-0.00319166
0.00265404
-0.00404166
0.00262417
-0.00481955
0.00241071
-0.00547454
0.00201842
-0.00595699
0.00145212
-0.00622064
0.000727383
-0.006227
-0.000119876
-0.00595136
-0.00102816
-0.00539143
-0.00190609
-0.00457618
-0.00263944
-0.00357379
-0.00310422
-0.00249353
-0.00319376
-0.00147502
-0.00285722
-0.000660646
-0.00213937
-0.000156529
-0.00119929
-0.000292706
-0.000274518
0.000829617
-0.000907357
0.0020876
-0.00175603
0.00294542
-0.00271845
0.0034491
-0.00371926
0.00365485
-0.00469848
0.00360339
-0.00560288
0.00331512
-0.0063809
0.00279643
-0.00698054
0.00205176
-0.00735002
0.00109686
-0.00744122
-2.86702e-05
-0.00721432
-0.00125506
-0.00664915
-0.00247126
-0.00575703
-0.00353155
-0.00459627
-0.00426498
-0.00328336
-0.00450667
-0.00198994
-0.00415064
-0.00091368
-0.00321563
-0.000223152
-0.00188982
-0.000515858
-0.000310429
0.00114005
-0.00102
0.00279716
-0.00196527
0.0038907
-0.00303245
0.00451628
-0.00414147
0.00476387
-0.00523215
0.00469407
-0.00625332
0.00433629
-0.00715548
0.00369859
-0.00788668
0.00278297
-0.00839105
0.00160123
-0.00860935
0.000189631
-0.0084854
-0.00137901
-0.00797379
-0.00298287
-0.00705806
-0.00444729
-0.00577345
-0.00554959
-0.00423139
-0.00604873
-0.00263155
-0.00575049
-0.00123894
-0.00460824
-0.000311256
-0.0028175
-0.000827114
-0.000333894
0.00147394
-0.00109472
0.00355798
-0.00210545
0.00490144
-0.00324465
0.00565547
-0.00443023
0.00594946
-0.00560434
0.00586818
-0.00672059
0.00545253
-0.00773469
0.0047127
-0.00859811
0.00364639
-0.00925396
0.00225708
-0.0096354
0.000571069
-0.00966851
-0.00134589
-0.00928053
-0.00337085
-0.00841788
-0.00530994
-0.00707641
-0.00689106
-0.00534143
-0.00778371
-0.00342421
-0.00766771
-0.001661
-0.00637145
-0.000431391
-0.00404711
-0.0012585
-0.000343662
0.0018176
-0.00112702
0.00434134
-0.00216654
0.00594096
-0.00333674
0.00682567
-0.0045559
0.00716862
-0.00577064
0.00708292
-0.00694202
0.0066239
-0.00803447
0.00580515
-0.00900732
0.00461924
-0.00980824
0.00305799
-0.0103686
0.00113147
-0.0106025
-0.00111201
-0.0104117
-0.00356169
-0.00970048
-0.00602114
-0.00840918
-0.00818235
-0.00656826
-0.00962463
-0.00436719
-0.00986878
-0.00219847
-0.00854017
-0.000594907
-0.00565068
-0.00185341
-0.000340282
0.00215788
-0.00111671
0.00511777
-0.00214462
0.00696887
-0.00329706
0.0079781
-0.00449455
0.00836611
-0.00569018
0.00827854
-0.00685496
0.00778869
-0.00796566
0.00691585
-0.00899472
0.0056483
-0.00990166
0.00396493
-0.0106255
0.00185529
-0.0110782
-0.000659324
-0.0111461
-0.0034938
-0.0106941
-0.00647314
-0.00959654
-0.00927987
-0.00779851
-0.0114227
-0.0054174
-0.0122499
-0.0028563
-0.0111013
-0.000813558
-0.00769342
-0.00266697
-0.00032766
0.00248554
-0.00107154
0.00586165
-0.00204733
0.00794466
-0.00312777
0.00905855
-0.00423758
0.00947592
-0.00533847
0.00937944
-0.00641401
0.00886423
-0.00745669
0.00795854
-0.00845718
0.00664879
-0.00939451
0.00490225
-0.0102267
0.00268747
-0.0108747
-1.12656e-05
-0.0112314
-0.00313712
-0.0111324
-0.00657213
-0.0103894
-0.0100229
-0.00883984
-0.0129722
-0.00647084
-0.0146189
-0.00361361
-0.0139585
-0.00109797
-0.0102091
-0.00376494
-0.000315115
0.00280066
-0.0010113
0.00655784
-0.0018995
0.00883286
-0.00285199
0.010011
-0.00380075
0.0104247
-0.0047196
0.0102983
-0.00560769
0.00975231
-0.00647616
0.00882701
-0.00733763
0.00751026
-0.00819653
0.00576114
-0.009038
0.00352894
-0.00982005
0.000770787
-0.0104401
-0.00251705
-0.0107428
-0.00626942
-0.0104964
-0.0102694
-0.00942939
-0.0140392
-0.0073501
-0.0166982
-0.0044072
-0.0169014
-0.00145358
-0.0131627
-0.00521852
-0.000320375
0.00312103
-0.000972656
0.00721012
-0.00174811
0.00960831
-0.00251834
0.0107813
-0.00322901
0.0111353
-0.00387247
0.0109418
-0.00446784
0.0103477
-0.00504756
0.00940672
-0.00564806
0.00811077
-0.00630181
0.00641489
-0.00702797
0.0042551
-0.00781994
0.00156276
-0.00862194
-0.00171505
-0.00930591
-0.00558545
-0.0096374
-0.00993788
-0.00926684
-0.0144098
-0.00780758
-0.0181574
-0.00511454
-0.0195944
-0.00187234
-0.0164049
-0.00709086
-0.000374393
0.00349543
-0.00101418
0.0078499
-0.00166409
0.0102582
-0.00219866
0.0113158
-0.00259061
0.0115273
-0.0028621
0.0112132
-0.00305874
0.0105443
-0.00323658
0.00958456
-0.0034554
0.00832959
-0.00377401
0.0067335
-0.00424434
0.00472543
-0.0049016
0.00222002
-0.00574507
-0.000871583
-0.00670713
-0.00462339
-0.00760158
-0.00904342
-0.00806381
-0.0139475
-0.00754807
-0.0186732
-0.00554288
-0.0215996
-0.0023188
-0.019629
-0.00940967
-0.000529836
0.00402526
-0.00121988
0.00853994
-0.00173435
0.0107727
-0.00196812
0.0115496
-0.00194707
0.0115062
-0.00174103
0.0110072
-0.00143092
0.0102342
-0.00109848
0.00925211
-0.000824481
0.00805559
-0.000688989
0.00659801
-0.000770348
0.00480678
-0.00114116
0.00259083
-0.001857
-0.00015574
-0.00292901
-0.00355138
-0.004268
-0.00770442
-0.00558031
-0.0126352
-0.00625706
-0.0179964
-0.00542677
-0.0224299
-0.00270937
-0.0223464
-0.012119
-0.000869132
0.00489439
-0.00168538
0.00935619
-0.00201573
0.0111031
-0.00183062
0.0113645
-0.00125667
0.0109323
-0.000436926
0.0101875
0.000502907
0.00929439
0.00145526
0.00829975
0.00232292
0.00718794
0.00301198
0.00590895
0.00342679
0.00439198
0.00346776
0.00254985
0.00303326
0.000278759
0.00203561
-0.00255373
0.000440811
-0.00610962
-0.00161268
-0.0105818
-0.00360291
-0.0160062
-0.00441645
-0.0216164
-0.00288118
-0.0238816
-0.0150002
-0.00149506
0.00638945
-0.00241227
0.0102734
-0.00233294
0.0110237
-0.00145401
0.0104856
-8.00047e-05
0.00955826
0.00154869
0.00855877
0.00326162
0.00758146
0.00493426
0.00662712
0.00646483
0.00565737
0.0077578
0.00461598
0.00871299
0.00343678
0.00921829
0.00204455
0.00914346
0.00035359
0.00834634
-0.00175662
0.00668071
-0.00444399
0.00408644
-0.00798748
0.000839063
-0.0127588
-0.00200621
-0.0187711
-0.0025033
-0.0233845
-0.0175035
-0.00234113
0.00873058
-0.00282045
0.0107527
-0.00158663
0.00978991
0.000571817
0.00832713
0.00311844
0.00701164
0.00575438
0.00592283
0.00831343
0.00502242
0.0106946
0.00424599
0.0128217
0.0035302
0.0146209
0.00281681
0.0160067
0.00205092
0.0168735
0.00117783
0.0170848
0.000142214
0.0164785
-0.00115024
0.0148399
-0.00280542
0.0119339
-0.00508144
0.00764862
-0.00847357
0.00261123
-0.0137337
-0.000908868
-0.0198645
-0.0184124
-0.00200254
0.0107331
0.000357675
0.0083925
0.00431869
0.00582889
0.00833303
0.00431279
0.0120903
0.00325436
0.015492
0.00252116
0.0185155
0.00199887
0.0211616
0.00159989
0.0234251
0.00126674
0.0252822
0.00095967
0.0266848
0.000648362
0.027554
0.000308643
0.0277804
-8.41508e-05
0.0272117
-0.00058163
0.0256265
-0.00122013
0.022695
-0.00214999
0.0179506
-0.00372915
0.0109497
-0.00673277
0.00302447
-0.0119393
-0.0153879
0.0107331
0.0191256
0.0249545
0.0292673
0.0325217
0.0350428
0.0370417
0.0386416
0.0399083
0.040868
0.0415164
0.041825
0.0417408
0.0411592
0.0399391
0.0377891
0.0340599
0.0273272
0.0153879
)
;

boundaryField
{
    movingWall
    {
        type            calculated;
        value           uniform 0;
    }
    fixedWalls
    {
        type            calculated;
        value           uniform 0;
    }
    frontAndBack
    {
        type            empty;
    }
}


// ************************************************************************* //
