/*--------------------------------*- C++ -*----------------------------------*\
  =========                 |
  \\      /  F ield         | OpenFOAM: The Open Source CFD Toolbox
   \\    /   O peration     | Website:  https://openfoam.org
    \\  /    A nd           | Version:  13
     \\/     M anipulation  |
\*---------------------------------------------------------------------------*/
FoamFile
{
    format      ascii;
    class       volVectorField;
    location    "17";
    object      U;
}
// * * * * * * * * * * * * * * * * * * * * * * * * * * * * * * * * * * * * * //

dimensions      [0 1 -1 0 0 0 0];

internalField   nonuniform List<vector> 
400
(
(0.000213404 -0.000213696 0)
(-9.38459e-05 -1.4791e-05 0)
(-0.00151349 0.000202293 0)
(-0.00376073 0.000340404 0)
(-0.00650973 0.00041299 0)
(-0.00946531 0.000441172 0)
(-0.0123781 0.000435476 0)
(-0.0150153 0.000395407 0)
(-0.0171373 0.000314472 0)
(-0.0184981 0.000187122 0)
(-0.0188716 1.57027e-05 0)
(-0.0181021 -0.000186808 0)
(-0.0161639 -0.000388498 0)
(-0.013211 -0.000547532 0)
(-0.0095999 -0.000619719 0)
(-0.00585879 -0.000572836 0)
(-0.00259557 -0.000400701 0)
(-0.000345083 -0.000134487 0)
(0.000585197 0.000143514 0)
(0.000319974 0.000306811 0)
(2.30501e-06 9.14641e-05 0)
(-0.00201647 0.00187231 0)
(-0.00641189 0.00366485 0)
(-0.0125393 0.00490307 0)
(-0.0196848 0.00555682 0)
(-0.027194 0.00569626 0)
(-0.0344636 0.00537166 0)
(-0.0409145 0.00459057 0)
(-0.0459703 0.00334426 0)
(-0.0490761 0.00165239 0)
(-0.0497633 -0.00039328 0)
(-0.0477418 -0.00260273 0)
(-0.0430109 -0.00468312 0)
(-0.0359485 -0.00627779 0)
(-0.0273364 -0.00703999 0)
(-0.0182981 -0.00673671 0)
(-0.0101208 -0.00535497 0)
(-0.0039673 -0.00317925 0)
(-0.000523354 -0.000841328 0)
(0.000244534 0.000613924 0)
(-0.000277616 0.00167971 0)
(-0.00438654 0.00643107 0)
(-0.0118268 0.0106083 0)
(-0.021523 0.0134315 0)
(-0.0324449 0.0148574 0)
(-0.0437033 0.0150037 0)
(-0.0544586 0.013958 0)
(-0.0638977 0.0117443 0)
(-0.0712227 0.00837788 0)
(-0.0756856 0.00395508 0)
(-0.0766707 -0.00126284 0)
(-0.0738073 -0.00679972 0)
(-0.0670956 -0.0119729 0)
(-0.0570133 -0.0159696 0)
(-0.0445612 -0.0180049 0)
(-0.0312093 -0.0175429 0)
(-0.0186994 -0.0145328 0)
(-0.00868995 -0.00958555 0)
(-0.00231736 -0.0040288 0)
(8.93842e-05 6.66798e-05 0)
(-0.000531753 0.00454528 0)
(-0.00668037 0.0136153 0)
(-0.0170472 0.0208211 0)
(-0.0300536 0.0254971 0)
(-0.0443555 0.0277166 0)
(-0.0588894 0.0276882 0)
(-0.0726653 0.0255496 0)
(-0.0847282 0.021349 0)
(-0.0941432 0.015141 0)
(-0.100032 0.007124 0)
(-0.101656 -0.00223606 0)
(-0.0985307 -0.0121354 0)
(-0.0905627 -0.0214359 0)
(-0.0781856 -0.0287806 0)
(-0.0624549 -0.032825 0)
(-0.0450562 -0.0325885 0)
(-0.028145 -0.0278617 0)
(-0.013957 -0.0195365 0)
(-0.00428069 -0.00969085 0)
(-3.66662e-05 -0.00145318 0)
(-0.000749934 0.00859039 0)
(-0.00873968 0.0232354 0)
(-0.0217697 0.0340264 0)
(-0.0377682 0.0407292 0)
(-0.0550994 0.0437042 0)
(-0.0725714 0.0433286 0)
(-0.0891104 0.0398179 0)
(-0.103692 0.0332507 0)
(-0.115306 0.0237176 0)
(-0.122976 0.011508 0)
(-0.125831 -0.00272495 0)
(-0.123204 -0.0178643 0)
(-0.114784 -0.032308 0)
(-0.100798 -0.0440923 0)
(-0.0821882 -0.0511715 0)
(-0.06074 -0.0518996 0)
(-0.0390282 -0.0456611 0)
(-0.0200312 -0.0334584 0)
(-0.00647724 -0.0181206 0)
(-0.000142594 -0.00399537 0)
(-0.000929555 0.0136595 0)
(-0.01048 0.0350035 0)
(-0.0257952 0.0498899 0)
(-0.044377 0.0587839 0)
(-0.0643464 0.0625043 0)
(-0.0844308 0.0616889 0)
(-0.103531 0.0566681 0)
(-0.120615 0.0475537 0)
(-0.13465 0.0344481 0)
(-0.144587 0.0176832 0)
(-0.149408 -0.00196903 0)
(-0.148196 -0.0231366 0)
(-0.140301 -0.0438033 0)
(-0.125567 -0.0613589 0)
(-0.10462 -0.0728914 0)
(-0.0791732 -0.0757775 0)
(-0.0521685 -0.0685907 0)
(-0.0274879 -0.0521091 0)
(-0.00917501 -0.029856 0)
(-0.00026309 -0.00771229 0)
(-0.00106475 0.0195608 0)
(-0.0118269 0.0485386 0)
(-0.028943 0.0679642 0)
(-0.0495852 0.0792172 0)
(-0.0716964 0.0837282 0)
(-0.0939726 0.0824885 0)
(-0.115345 0.0759855 0)
(-0.134832 0.0643638 0)
(-0.151433 0.0476986 0)
(-0.16407 0.026288 0)
(-0.171577 0.000915729 0)
(-0.172767 -0.026924 0)
(-0.166566 -0.0548896 0)
(-0.15226 -0.0797438 0)
(-0.129919 -0.0975658 0)
(-0.100904 -0.104385 0)
(-0.0683174 -0.0973804 0)
(-0.0369922 -0.0765077 0)
(-0.0127266 -0.0457519 0)
(-0.000442538 -0.0129327 0)
(-0.00114793 0.0260631 0)
(-0.012709 0.0633716 0)
(-0.0310387 0.0876861 0)
(-0.0530855 0.101454 0)
(-0.0766825 0.106846 0)
(-0.100541 0.105294 0)
(-0.123673 0.0974894 0)
(-0.145209 0.0836116 0)
(-0.164246 0.0636663 0)
(-0.179741 0.0378275 0)
(-0.190453 0.00675549 0)
(-0.194952 -0.0281125 0)
(-0.19171 -0.0642709 0)
(-0.179358 -0.0979747 0)
(-0.157151 -0.124248 0)
(-0.125704 -0.137428 0)
(-0.0878409 -0.132563 0)
(-0.0491336 -0.107813 0)
(-0.0175219 -0.0669842 0)
(-0.000736127 -0.0201896 0)
(-0.00117489 0.0329003 0)
(-0.0130793 0.0789535 0)
(-0.0319492 0.108374 0)
(-0.0546086 0.12476 0)
(-0.0788407 0.131121 0)
(-0.103412 0.129415 0)
(-0.127462 0.120589 0)
(-0.150293 0.104874 0)
(-0.171178 0.0821726 0)
(-0.189212 0.0524527 0)
(-0.203197 0.0161082 0)
(-0.211577 -0.025671 0)
(-0.212469 -0.0704693 0)
(-0.203831 -0.114289 0)
(-0.183913 -0.151237 0)
(-0.152131 -0.173775 0)
(-0.110352 -0.174056 0)
(-0.0642394 -0.147042 0)
(-0.0239633 -0.0949716 0)
(-0.00121971 -0.0302381 0)
(-0.00115228 0.0397934 0)
(-0.012954 0.0946872 0)
(-0.0316516 0.129244 0)
(-0.0540196 0.148232 0)
(-0.0778374 0.155572 0)
(-0.101961 0.153832 0)
(-0.1257 0.14428 0)
(-0.148587 0.127232 0)
(-0.170158 0.102486 0)
(-0.189768 0.0697512 0)
(-0.206434 0.0290399 0)
(-0.218671 -0.0189069 0)
(-0.224456 -0.0720471 0)
(-0.221233 -0.126548 0)
(-0.206198 -0.175993 0)
(-0.177195 -0.211118 0)
(-0.134294 -0.220631 0)
(-0.0821011 -0.19459 0)
(-0.032424 -0.131184 0)
(-0.00200669 -0.044071 0)
(-0.00110805 0.0465005 0)
(-0.0124658 0.109996 0)
(-0.0303225 0.149469 0)
(-0.0514424 0.170825 0)
(-0.0736331 0.178976 0)
(-0.0958817 0.177183 0)
(-0.117713 0.16711 0)
(-0.138947 0.149216 0)
(-0.159464 0.123231 0)
(-0.179005 0.0886048 0)
(-0.196983 0.0449179 0)
(-0.212217 -0.00767464 0)
(-0.222889 -0.0679466 0)
(-0.226266 -0.132581 0)
(-0.218683 -0.195335 0)
(-0.196282 -0.245852 0)
(-0.15659 -0.269405 0)
(-0.101595 -0.249565 0)
(-0.0431404 -0.176776 0)
(-0.00327064 -0.062919 0)
(-0.00110653 0.0529021 0)
(-0.0119304 0.124438 0)
(-0.0284391 0.168261 0)
(-0.0473865 0.19142 0)
(-0.0666401 0.199923 0)
(-0.0853916 0.197817 0)
(-0.103447 0.187242 0)
(-0.120969 0.168869 0)
(-0.138243 0.142421 0)
(-0.155481 0.10714 0)
(-0.172629 0.0621842 0)
(-0.189186 0.00703758 0)
(-0.203772 -0.0580105 0)
(-0.213856 -0.130767 0)
(-0.215559 -0.205993 0)
(-0.203591 -0.273366 0)
(-0.172566 -0.315606 0)
(-0.120272 -0.309044 0)
(-0.0559848 -0.231965 0)
(-0.00526632 -0.0882004 0)
(-0.00127475 0.0591351 0)
(-0.0119358 0.137858 0)
(-0.0268786 0.184992 0)
(-0.0428406 0.208904 0)
(-0.0578112 0.216897 0)
(-0.0713365 0.213907 0)
(-0.083614 0.202606 0)
(-0.0952159 0.183932 0)
(-0.106872 0.157669 0)
(-0.119307 0.122936 0)
(-0.133079 0.0785497 0)
(-0.148391 0.0233622 0)
(-0.164711 -0.043236 0)
(-0.180325 -0.120649 0)
(-0.191737 -0.205448 0)
(-0.193058 -0.288835 0)
(-0.176347 -0.352878 0)
(-0.134122 -0.367542 0)
(-0.0700785 -0.295166 0)
(-0.00832605 -0.121353 0)
(-0.00185099 0.0657988 0)
(-0.0134697 0.150565 0)
(-0.0269963 0.199279 0)
(-0.0392686 0.222212 0)
(-0.048555 0.228334 0)
(-0.0550412 0.223553 0)
(-0.0594952 0.211073 0)
(-0.0629822 0.192091 0)
(-0.0666874 0.166492 0)
(-0.0718179 0.133354 0)
(-0.0795086 0.0912924 0)
(-0.0906871 0.0387103 0)
(-0.105795 -0.0258941 0)
(-0.124316 -0.103425 0)
(-0.143976 -0.192842 0)
(-0.159506 -0.288403 0)
(-0.161663 -0.374266 0)
(-0.137682 -0.417089 0)
(-0.0832677 -0.362025 0)
(-0.0127823 -0.163466 0)
(-0.00328809 0.0743165 0)
(-0.0180971 0.163539 0)
(-0.0305915 0.211013 0)
(-0.038327 0.230292 0)
(-0.0402294 0.232592 0)
(-0.0376176 0.224807 0)
(-0.0320888 0.21054 0)
(-0.0252982 0.191139 0)
(-0.0188738 0.166542 0)
(-0.0144221 0.135826 0)
(-0.0135337 0.0975317 0)
(-0.017744 0.0498382 0)
(-0.0284004 -0.00930481 0)
(-0.0463152 -0.0819907 0)
(-0.071049 -0.169549 0)
(-0.0992982 -0.270336 0)
(-0.122634 -0.373638 0)
(-0.1244 -0.448055 0)
(-0.0915592 -0.424611 0)
(-0.0187137 -0.214559 0)
(-0.00636542 0.0873874 0)
(-0.0280272 0.178228 0)
(-0.0393158 0.219819 0)
(-0.0406327 0.23153 0)
(-0.0323991 0.227501 0)
(-0.0178511 0.215364 0)
(0.000273602 0.198755 0)
(0.0196548 0.178904 0)
(0.0382782 0.155664 0)
(0.0542658 0.128086 0)
(0.0657438 0.0947259 0)
(0.0707768 0.0537595 0)
(0.0673302 0.00299836 0)
(0.0534456 -0.0602321 0)
(0.0275919 -0.13894 0)
(-0.00983202 -0.235599 0)
(-0.0538135 -0.346994 0)
(-0.0866467 -0.450293 0)
(-0.0885332 -0.470819 0)
(-0.0253084 -0.272243 0)
(-0.0125256 0.110608 0)
(-0.0452319 0.196693 0)
(-0.0514816 0.224509 0)
(-0.0409226 0.22308 0)
(-0.0171027 0.209789 0)
(0.0138487 0.192156 0)
(0.0479236 0.173076 0)
(0.082281 0.153173 0)
(0.114746 0.131964 0)
(0.143411 0.1084 0)
(0.166362 0.0811005 0)
(0.181529 0.0484083 0)
(0.18649 0.00835031 0)
(0.178572 -0.0416651 0)
(0.154699 -0.105168 0)
(0.112412 -0.187467 0)
(0.0511638 -0.293339 0)
(-0.0143431 -0.414472 0)
(-0.0643473 -0.485105 0)
(-0.0295921 -0.330448 0)
(-0.0216112 0.148422 0)
(-0.0652342 0.21312 0)
(-0.0494106 0.215055 0)
(-0.0130637 0.195068 0)
(0.0358397 0.171587 0)
(0.0886718 0.149577 0)
(0.1412 0.129825 0)
(0.190981 0.111741 0)
(0.236382 0.0943026 0)
(0.275984 0.0763408 0)
(0.308244 0.0566177 0)
(0.331322 0.033802 0)
(0.342779 0.0063664 0)
(0.339803 -0.0276432 0)
(0.318481 -0.0712201 0)
(0.274626 -0.130253 0)
(0.202147 -0.214981 0)
(0.107924 -0.334969 0)
(-0.00321528 -0.451456 0)
(-0.0232669 -0.378729 0)
(-0.0274711 0.22934 0)
(-0.0364913 0.223123 0)
(0.0465584 0.176949 0)
(0.127036 0.138734 0)
(0.205578 0.10949 0)
(0.277453 0.0878644 0)
(0.341744 0.0715681 0)
(0.398429 0.058575 0)
(0.447561 0.0473839 0)
(0.488898 0.0368474 0)
(0.521741 0.0260155 0)
(0.544876 0.0140307 0)
(0.556357 1.42966e-05 0)
(0.553857 -0.0170281 0)
(0.533341 -0.0390807 0)
(0.490572 -0.0704509 0)
(0.415311 -0.120932 0)
(0.304897 -0.213375 0)
(0.125876 -0.348318 0)
(0.0236667 -0.378789 0)
(0.214441 0.135798 0)
(0.285141 0.0984511 0)
(0.44466 0.0569159 0)
(0.547915 0.0365837 0)
(0.621659 0.0241681 0)
(0.678239 0.0163195 0)
(0.722807 0.0113349 0)
(0.758392 0.00800623 0)
(0.78683 0.00557327 0)
(0.809013 0.0035718 0)
(0.825127 0.00169512 0)
(0.834846 -0.000270062 0)
(0.837301 -0.00250564 0)
(0.831183 -0.00505019 0)
(0.813545 -0.00850176 0)
(0.781941 -0.0135054 0)
(0.724081 -0.023177 0)
(0.635276 -0.040602 0)
(0.43131 -0.0912951 0)
(0.270899 -0.153523 0)
)
;

boundaryField
{
    movingWall
    {
        type            fixedValue;
        value           uniform (1 0 0);
    }
    fixedWalls
    {
        type            fixedValue;
        value           uniform (0 0 0);
    }
    frontAndBack
    {
        type            empty;
    }
}


// ************************************************************************* //
