/*--------------------------------*- C++ -*----------------------------------*\
  =========                 |
  \\      /  F ield         | OpenFOAM: The Open Source CFD Toolbox
   \\    /   O peration     | Website:  https://openfoam.org
    \\  /    A nd           | Version:  13
     \\/     M anipulation  |
\*---------------------------------------------------------------------------*/
FoamFile
{
    format      ascii;
    class       volVectorField;
    location    "17";
    object      U_0;
}
// * * * * * * * * * * * * * * * * * * * * * * * * * * * * * * * * * * * * * //

dimensions      [0 1 -1 0 0 0 0];

internalField   nonuniform List<vector> 
400
(
(0.000213363 -0.000213735 0)
(-9.39166e-05 -1.48073e-05 0)
(-0.00151353 0.000202285 0)
(-0.00376075 0.000340398 0)
(-0.00650973 0.000412986 0)
(-0.0094653 0.00044117 0)
(-0.0123781 0.000435475 0)
(-0.0150153 0.000395406 0)
(-0.0171373 0.000314471 0)
(-0.018498 0.000187121 0)
(-0.0188715 1.57022e-05 0)
(-0.0181021 -0.000186808 0)
(-0.0161638 -0.000388497 0)
(-0.0132109 -0.00054753 0)
(-0.00959989 -0.000619718 0)
(-0.00585879 -0.000572835 0)
(-0.00259557 -0.000400701 0)
(-0.000345092 -0.000134488 0)
(0.00058519 0.000143513 0)
(0.000319972 0.00030681 0)
(2.28718e-06 9.1398e-05 0)
(-0.0020165 0.00187227 0)
(-0.0064119 0.00366482 0)
(-0.0125393 0.00490305 0)
(-0.0196847 0.0055568 0)
(-0.0271939 0.00569624 0)
(-0.0344635 0.00537163 0)
(-0.0409144 0.00459055 0)
(-0.0459702 0.00334425 0)
(-0.0490759 0.00165239 0)
(-0.0497631 -0.000393275 0)
(-0.0477417 -0.00260271 0)
(-0.0430107 -0.0046831 0)
(-0.0359484 -0.00627776 0)
(-0.0273364 -0.00703996 0)
(-0.0182981 -0.00673669 0)
(-0.0101207 -0.00535495 0)
(-0.00396731 -0.00317924 0)
(-0.000523359 -0.000841331 0)
(0.000244533 0.00061392 0)
(-0.000277624 0.00167966 0)
(-0.00438654 0.00643101 0)
(-0.0118268 0.0106083 0)
(-0.0215229 0.0134314 0)
(-0.0324448 0.0148574 0)
(-0.0437031 0.0150036 0)
(-0.0544584 0.013958 0)
(-0.0638974 0.0117443 0)
(-0.0712224 0.00837786 0)
(-0.0756853 0.00395508 0)
(-0.0766704 -0.00126283 0)
(-0.073807 -0.00679968 0)
(-0.0670953 -0.0119728 0)
(-0.0570132 -0.0159695 0)
(-0.0445611 -0.0180049 0)
(-0.0312092 -0.0175428 0)
(-0.0186994 -0.0145327 0)
(-0.00868994 -0.00958553 0)
(-0.00231736 -0.0040288 0)
(8.9383e-05 6.66737e-05 0)
(-0.000531756 0.00454524 0)
(-0.00668035 0.0136152 0)
(-0.0170472 0.020821 0)
(-0.0300535 0.025497 0)
(-0.0443553 0.0277165 0)
(-0.0588892 0.0276881 0)
(-0.0726651 0.0255495 0)
(-0.0847278 0.0213489 0)
(-0.0941429 0.0151409 0)
(-0.100032 0.007124 0)
(-0.101656 -0.00223603 0)
(-0.0985304 -0.0121353 0)
(-0.0905624 -0.0214358 0)
(-0.0781854 -0.0287805 0)
(-0.0624547 -0.0328249 0)
(-0.0450561 -0.0325884 0)
(-0.0281449 -0.0278616 0)
(-0.013957 -0.0195364 0)
(-0.00428068 -0.00969084 0)
(-3.66671e-05 -0.00145319 0)
(-0.000749934 0.00859033 0)
(-0.00873965 0.0232353 0)
(-0.0217696 0.0340263 0)
(-0.0377681 0.0407291 0)
(-0.0550991 0.043704 0)
(-0.0725711 0.0433284 0)
(-0.08911 0.0398177 0)
(-0.103692 0.0332506 0)
(-0.115306 0.0237175 0)
(-0.122976 0.011508 0)
(-0.125831 -0.0027249 0)
(-0.123204 -0.0178642 0)
(-0.114784 -0.0323079 0)
(-0.100798 -0.0440922 0)
(-0.082188 -0.0511714 0)
(-0.0607398 -0.0518994 0)
(-0.0390281 -0.0456609 0)
(-0.0200312 -0.0334584 0)
(-0.00647723 -0.0181206 0)
(-0.000142594 -0.00399537 0)
(-0.000929551 0.0136594 0)
(-0.01048 0.0350034 0)
(-0.0257951 0.0498897 0)
(-0.0443769 0.0587837 0)
(-0.0643462 0.062504 0)
(-0.0844305 0.0616886 0)
(-0.103531 0.0566679 0)
(-0.120615 0.0475536 0)
(-0.134649 0.034448 0)
(-0.144587 0.0176832 0)
(-0.149407 -0.00196895 0)
(-0.148196 -0.0231365 0)
(-0.140301 -0.0438031 0)
(-0.125566 -0.0613587 0)
(-0.104619 -0.0728912 0)
(-0.079173 -0.0757772 0)
(-0.0521684 -0.0685906 0)
(-0.0274878 -0.052109 0)
(-0.00917499 -0.029856 0)
(-0.00026309 -0.00771228 0)
(-0.00106474 0.0195607 0)
(-0.0118269 0.0485383 0)
(-0.0289429 0.0679639 0)
(-0.049585 0.0792169 0)
(-0.0716961 0.0837278 0)
(-0.0939723 0.0824882 0)
(-0.115344 0.0759853 0)
(-0.134832 0.0643636 0)
(-0.151433 0.0476985 0)
(-0.16407 0.026288 0)
(-0.171576 0.000915819 0)
(-0.172767 -0.0269239 0)
(-0.166565 -0.0548894 0)
(-0.152259 -0.0797435 0)
(-0.129919 -0.0975655 0)
(-0.100904 -0.104385 0)
(-0.0683173 -0.0973801 0)
(-0.0369921 -0.0765075 0)
(-0.0127266 -0.0457518 0)
(-0.000442538 -0.0129327 0)
(-0.00114793 0.026063 0)
(-0.012709 0.0633713 0)
(-0.0310386 0.0876858 0)
(-0.0530853 0.101454 0)
(-0.0766822 0.106845 0)
(-0.100541 0.105294 0)
(-0.123673 0.0974891 0)
(-0.145209 0.0836114 0)
(-0.164246 0.0636661 0)
(-0.17974 0.0378275 0)
(-0.190453 0.00675559 0)
(-0.194951 -0.0281123 0)
(-0.19171 -0.0642706 0)
(-0.179357 -0.0979744 0)
(-0.157151 -0.124248 0)
(-0.125703 -0.137428 0)
(-0.0878407 -0.132563 0)
(-0.0491335 -0.107813 0)
(-0.0175218 -0.0669841 0)
(-0.000736125 -0.0201896 0)
(-0.00117489 0.0329002 0)
(-0.0130792 0.0789532 0)
(-0.0319492 0.108373 0)
(-0.0546085 0.12476 0)
(-0.0788406 0.13112 0)
(-0.103412 0.129415 0)
(-0.127462 0.120589 0)
(-0.150293 0.104874 0)
(-0.171178 0.0821725 0)
(-0.189211 0.0524527 0)
(-0.203197 0.0161083 0)
(-0.211577 -0.0256708 0)
(-0.212469 -0.0704689 0)
(-0.203831 -0.114288 0)
(-0.183913 -0.151236 0)
(-0.152131 -0.173775 0)
(-0.110351 -0.174056 0)
(-0.0642393 -0.147042 0)
(-0.0239633 -0.0949714 0)
(-0.0012197 -0.0302381 0)
(-0.00115228 0.0397932 0)
(-0.0129539 0.0946868 0)
(-0.0316515 0.129244 0)
(-0.0540195 0.148231 0)
(-0.0778373 0.155571 0)
(-0.101961 0.153832 0)
(-0.1257 0.14428 0)
(-0.148587 0.127231 0)
(-0.170158 0.102486 0)
(-0.189768 0.0697512 0)
(-0.206434 0.02904 0)
(-0.218671 -0.0189066 0)
(-0.224456 -0.0720467 0)
(-0.221233 -0.126548 0)
(-0.206198 -0.175993 0)
(-0.177194 -0.211117 0)
(-0.134293 -0.220631 0)
(-0.082101 -0.194589 0)
(-0.032424 -0.131184 0)
(-0.00200669 -0.0440709 0)
(-0.00110805 0.0465003 0)
(-0.0124658 0.109996 0)
(-0.0303225 0.149469 0)
(-0.0514424 0.170825 0)
(-0.073633 0.178976 0)
(-0.0958816 0.177182 0)
(-0.117713 0.16711 0)
(-0.138947 0.149216 0)
(-0.159464 0.123231 0)
(-0.179005 0.0886048 0)
(-0.196983 0.044918 0)
(-0.212217 -0.00767441 0)
(-0.222889 -0.0679463 0)
(-0.226266 -0.13258 0)
(-0.218683 -0.195335 0)
(-0.196282 -0.245851 0)
(-0.156589 -0.269405 0)
(-0.101595 -0.249564 0)
(-0.0431403 -0.176776 0)
(-0.00327063 -0.0629189 0)
(-0.00110654 0.0529019 0)
(-0.0119304 0.124438 0)
(-0.0284391 0.16826 0)
(-0.0473866 0.19142 0)
(-0.0666402 0.199922 0)
(-0.0853917 0.197816 0)
(-0.103447 0.187242 0)
(-0.120969 0.168868 0)
(-0.138243 0.142421 0)
(-0.155481 0.10714 0)
(-0.172629 0.0621843 0)
(-0.189186 0.0070378 0)
(-0.203772 -0.0580102 0)
(-0.213856 -0.130767 0)
(-0.215559 -0.205993 0)
(-0.203591 -0.273365 0)
(-0.172566 -0.315605 0)
(-0.120272 -0.309044 0)
(-0.0559847 -0.231965 0)
(-0.00526631 -0.0882003 0)
(-0.00127476 0.0591349 0)
(-0.0119359 0.137857 0)
(-0.0268787 0.184992 0)
(-0.0428407 0.208903 0)
(-0.0578113 0.216896 0)
(-0.0713367 0.213906 0)
(-0.0836142 0.202606 0)
(-0.0952162 0.183932 0)
(-0.106872 0.157669 0)
(-0.119307 0.122936 0)
(-0.13308 0.0785498 0)
(-0.148391 0.0233624 0)
(-0.164711 -0.0432358 0)
(-0.180325 -0.120649 0)
(-0.191737 -0.205447 0)
(-0.193058 -0.288834 0)
(-0.176347 -0.352878 0)
(-0.134122 -0.367542 0)
(-0.0700785 -0.295165 0)
(-0.00832605 -0.121353 0)
(-0.001851 0.0657986 0)
(-0.0134698 0.150564 0)
(-0.0269965 0.199279 0)
(-0.0392688 0.222212 0)
(-0.0485553 0.228334 0)
(-0.0550415 0.223553 0)
(-0.0594955 0.211072 0)
(-0.0629826 0.192091 0)
(-0.0666878 0.166492 0)
(-0.0718183 0.133354 0)
(-0.079509 0.0912926 0)
(-0.0906875 0.0387105 0)
(-0.105795 -0.0258939 0)
(-0.124316 -0.103425 0)
(-0.143976 -0.192841 0)
(-0.159506 -0.288402 0)
(-0.161664 -0.374266 0)
(-0.137682 -0.417089 0)
(-0.0832677 -0.362025 0)
(-0.0127822 -0.163466 0)
(-0.0032881 0.0743164 0)
(-0.0180972 0.163539 0)
(-0.0305917 0.211013 0)
(-0.0383272 0.230291 0)
(-0.0402297 0.232592 0)
(-0.037618 0.224807 0)
(-0.0320892 0.210539 0)
(-0.0252987 0.191139 0)
(-0.0188743 0.166542 0)
(-0.0144226 0.135826 0)
(-0.0135342 0.0975318 0)
(-0.0177444 0.0498384 0)
(-0.0284008 -0.0093046 0)
(-0.0463156 -0.0819905 0)
(-0.0710494 -0.169549 0)
(-0.0992985 -0.270336 0)
(-0.122634 -0.373638 0)
(-0.1244 -0.448055 0)
(-0.0915593 -0.424611 0)
(-0.0187137 -0.214559 0)
(-0.00636542 0.0873874 0)
(-0.0280273 0.178227 0)
(-0.0393159 0.219818 0)
(-0.040633 0.231529 0)
(-0.0323995 0.2275 0)
(-0.0178515 0.215364 0)
(0.000273131 0.198755 0)
(0.0196543 0.178904 0)
(0.0382777 0.155664 0)
(0.0542653 0.128086 0)
(0.0657433 0.094726 0)
(0.0707764 0.0537596 0)
(0.0673298 0.00299853 0)
(0.0534452 -0.0602319 0)
(0.0275916 -0.13894 0)
(-0.00983229 -0.235599 0)
(-0.0538137 -0.346994 0)
(-0.0866468 -0.450293 0)
(-0.0885333 -0.470819 0)
(-0.0253084 -0.272243 0)
(-0.0125256 0.110608 0)
(-0.045232 0.196693 0)
(-0.0514818 0.224509 0)
(-0.0409228 0.223079 0)
(-0.0171031 0.209788 0)
(0.0138483 0.192155 0)
(0.0479232 0.173076 0)
(0.0822805 0.153173 0)
(0.114746 0.131964 0)
(0.14341 0.1084 0)
(0.166362 0.0811005 0)
(0.181529 0.0484084 0)
(0.186489 0.00835044 0)
(0.178572 -0.041665 0)
(0.154699 -0.105168 0)
(0.112412 -0.187467 0)
(0.0511636 -0.293339 0)
(-0.0143432 -0.414472 0)
(-0.0643474 -0.485105 0)
(-0.0295921 -0.330448 0)
(-0.0216112 0.148422 0)
(-0.0652342 0.21312 0)
(-0.0494107 0.215055 0)
(-0.0130638 0.195068 0)
(0.0358394 0.171587 0)
(0.0886715 0.149577 0)
(0.1412 0.129825 0)
(0.190981 0.111741 0)
(0.236381 0.0943025 0)
(0.275984 0.0763408 0)
(0.308244 0.0566178 0)
(0.331322 0.0338021 0)
(0.342778 0.00636649 0)
(0.339803 -0.0276432 0)
(0.318481 -0.07122 0)
(0.274626 -0.130253 0)
(0.202147 -0.214981 0)
(0.107923 -0.334969 0)
(-0.00321533 -0.451456 0)
(-0.0232669 -0.378729 0)
(-0.0274711 0.22934 0)
(-0.0364912 0.223123 0)
(0.0465584 0.176949 0)
(0.127036 0.138734 0)
(0.205578 0.10949 0)
(0.277453 0.0878644 0)
(0.341743 0.071568 0)
(0.398428 0.0585749 0)
(0.44756 0.0473839 0)
(0.488898 0.0368474 0)
(0.521741 0.0260155 0)
(0.544875 0.0140308 0)
(0.556357 1.4338e-05 0)
(0.553857 -0.0170281 0)
(0.533341 -0.0390807 0)
(0.490572 -0.0704509 0)
(0.41531 -0.120932 0)
(0.304897 -0.213375 0)
(0.125876 -0.348318 0)
(0.0236667 -0.378789 0)
(0.214441 0.135798 0)
(0.285141 0.0984511 0)
(0.44466 0.0569159 0)
(0.547915 0.0365837 0)
(0.621659 0.0241681 0)
(0.678239 0.0163194 0)
(0.722807 0.0113349 0)
(0.758392 0.00800622 0)
(0.78683 0.00557327 0)
(0.809013 0.0035718 0)
(0.825127 0.00169513 0)
(0.834846 -0.000270056 0)
(0.837301 -0.00250563 0)
(0.831183 -0.00505018 0)
(0.813545 -0.00850176 0)
(0.781941 -0.0135054 0)
(0.724081 -0.023177 0)
(0.635276 -0.040602 0)
(0.43131 -0.0912951 0)
(0.270899 -0.153523 0)
)
;

boundaryField
{
    movingWall
    {
        type            calculated;
        value           uniform (1 0 0);
    }
    fixedWalls
    {
        type            calculated;
        value           uniform (0 0 0);
    }
    frontAndBack
    {
        type            empty;
    }
}


// ************************************************************************* //
