/*--------------------------------*- C++ -*----------------------------------*\
  =========                 |
  \\      /  F ield         | OpenFOAM: The Open Source CFD Toolbox
   \\    /   O peration     | Website:  https://openfoam.org
    \\  /    A nd           | Version:  13
     \\/     M anipulation  |
\*---------------------------------------------------------------------------*/
FoamFile
{
    format      ascii;
    class       volScalarField;
    location    "30";
    object      p;
}
// * * * * * * * * * * * * * * * * * * * * * * * * * * * * * * * * * * * * * //

dimensions      [0 2 -2 0 0 0 0];

internalField   nonuniform List<scalar> 
400
(
3.74779e-07
-0.000572118
-0.0012157
-0.00171854
-0.00195888
-0.0018844
-0.0014702
-0.000705228
0.000401614
0.00180626
0.00341498
0.0050753
0.00659134
0.00775141
0.00838011
0.00839595
0.00785567
0.00696924
0.00604836
0.00549469
0.000570256
-2.00208e-05
-0.000569422
-0.000956753
-0.00113169
-0.00106166
-0.000725685
-0.000108958
0.000789071
0.00193976
0.00327009
0.00466042
0.00594099
0.00693012
0.00747456
0.00750211
0.00705954
0.00631916
0.00554358
0.00497298
0.00124601
0.000493303
-8.64412e-05
-0.000441105
-0.00060586
-0.000575977
-0.000336972
0.000132883
0.00084999
0.0018072
0.00295516
0.0041921
0.00536474
0.00629412
0.00681957
0.00685323
0.00642108
0.00566851
0.00480926
0.00403752
0.00174088
0.000764031
7.39832e-05
-0.000321661
-0.000536846
-0.000592438
-0.000477924
-0.000159856
0.00040033
0.0012224
0.00228201
0.00349319
0.00470203
0.00571005
0.00631972
0.00639848
0.00593385
0.0050509
0.00394874
0.00284477
0.00179574
0.000596041
-0.000227359
-0.000704509
-0.00101785
-0.00120694
-0.00125905
-0.00112269
-0.000730182
-2.75049e-05
0.000992087
0.00226394
0.00363041
0.00486159
0.00569902
0.00593267
0.00548075
0.00443584
0.00300029
0.00146244
0.00119499
-0.000202733
-0.00116295
-0.00175236
-0.00221109
-0.00259035
-0.00286894
-0.00297087
-0.00279158
-0.00223257
-0.00124371
0.000150889
0.00179323
0.00342022
0.0046906
0.0052751
0.00497227
0.00380605
0.00197938
-0.000103683
-0.000241286
-0.00179979
-0.00289193
-0.00362186
-0.00427735
-0.00491628
-0.00550472
-0.00593718
-0.00606419
-0.00572807
-0.00480653
-0.00328478
-0.00126995
0.000947089
0.00292668
0.00417025
0.00427965
0.00313593
0.000902991
-0.00185588
-0.00265157
-0.00432601
-0.00554092
-0.00643892
-0.00734673
-0.00832735
-0.0093335
-0.0102283
-0.0108108
-0.01085
-0.0101331
-0.00853858
-0.00610665
-0.00311185
-8.60232e-05
0.00225544
0.00321305
0.00239567
-0.000176981
-0.00375257
-0.00612097
-0.00786133
-0.00918438
-0.0102714
-0.0114826
-0.0128889
-0.014434
-0.0159525
-0.0171892
-0.0178272
-0.0175349
-0.0160423
-0.0132527
-0.00935709
-0.00493562
-0.00094101
0.00150848
0.00155497
-0.00113676
-0.00564641
-0.0106711
-0.0124233
-0.0138271
-0.0151017
-0.0166418
-0.0185354
-0.0207267
-0.02303
-0.02514
-0.0266487
-0.0270836
-0.0259771
-0.0230338
-0.0182537
-0.0121673
-0.00592173
-0.00114189
0.000603415
-0.001731
-0.00719476
-0.0162601
-0.0179649
-0.0193953
-0.0208058
-0.0226411
-0.0250229
-0.0279109
-0.031111
-0.034277
-0.0369134
-0.0383948
-0.0380062
-0.0352837
-0.0298331
-0.0220047
-0.013006
-0.00495941
-0.000375175
-0.00151564
-0.00772029
-0.0228025
-0.0243896
-0.0257423
-0.027148
-0.0291431
-0.0319102
-0.035442
-0.0395489
-0.0438544
-0.0477842
-0.0505795
-0.0513767
-0.049163
-0.0433935
-0.0339884
-0.0219773
-0.00980552
-0.00102438
0.00028043
-0.00599962
-0.0302221
-0.0315858
-0.0326691
-0.0337916
-0.0356677
-0.0385795
-0.0425685
-0.0474545
-0.0528338
-0.0580622
-0.0622506
-0.0643101
-0.0630218
-0.0573315
-0.0466924
-0.0317045
-0.0148007
-0.000416688
0.00496598
2.31816e-05
-0.0385596
-0.039489
-0.0399608
-0.0403265
-0.0416345
-0.0443091
-0.0484451
-0.0538589
-0.0601054
-0.0664649
-0.071929
-0.075221
-0.0748699
-0.0694209
-0.0578066
-0.0400017
-0.0180229
0.00327992
0.014699
0.0135561
-0.0481743
-0.0481566
-0.0474031
-0.0462837
-0.0464116
-0.0483708
-0.052281
-0.0579127
-0.0647389
-0.0719349
-0.0783602
-0.0825608
-0.0828318
-0.0773734
-0.0646449
-0.0439366
-0.0165431
0.0130192
0.0329314
0.0392811
-0.0602346
-0.0579573
-0.0548668
-0.0512131
-0.0494268
-0.050178
-0.0535199
-0.0590933
-0.0662196
-0.0739183
-0.080879
-0.085453
-0.0857065
-0.0795195
-0.0649416
-0.0406109
-0.00697851
0.0328172
0.0647941
0.0836771
-0.077481
-0.0694728
-0.0620871
-0.0545491
-0.0501386
-0.0493247
-0.051904
-0.0572606
-0.0644858
-0.0723846
-0.0794396
-0.083778
-0.0832181
-0.0752826
-0.0576211
-0.0282109
0.0133528
0.0666613
0.115753
0.154807
-0.108925
-0.0850397
-0.069773
-0.0563912
-0.0485407
-0.0458808
-0.0476239
-0.0527146
-0.0599168
-0.0677766
-0.074552
-0.0781397
-0.076104
-0.0655422
-0.0436429
-0.00744476
0.0447434
0.114933
0.188079
0.263281
-0.168693
-0.100745
-0.0730928
-0.0522878
-0.0413099
-0.0376994
-0.0394417
-0.0448651
-0.0524154
-0.0604466
-0.0670735
-0.0700475
-0.0666871
-0.0537881
-0.0278895
0.0154102
0.0800719
0.17276
0.285855
0.445986
-0.402754
-0.139031
-0.0734588
-0.0447298
-0.0305715
-0.0266172
-0.0290853
-0.0353731
-0.0436537
-0.052207
-0.0591236
-0.0621452
-0.0586171
-0.0452137
-0.0174505
0.031079
0.108496
0.236657
0.427488
0.79368
)
;

boundaryField
{
    movingWall
    {
        type            zeroGradient;
    }
    fixedWalls
    {
        type            zeroGradient;
    }
    frontAndBack
    {
        type            empty;
    }
}


// ************************************************************************* //
