/*--------------------------------*- C++ -*----------------------------------*\
  =========                 |
  \\      /  F ield         | OpenFOAM: The Open Source CFD Toolbox
   \\    /   O peration     | Website:  https://openfoam.org
    \\  /    A nd           | Version:  13
     \\/     M anipulation  |
\*---------------------------------------------------------------------------*/
FoamFile
{
    format      ascii;
    class       surfaceScalarField;
    location    "30";
    object      phi_0;
}
// * * * * * * * * * * * * * * * * * * * * * * * * * * * * * * * * * * * * * //

dimensions      [0 3 -1 0 0 0 0];

internalField   nonuniform List<scalar> 
760
(
4.39509e-06
-4.39921e-06
-3.89736e-05
4.33687e-05
-0.000131157
9.21835e-05
-0.00025659
0.000125432
-0.000399493
0.000142903
-0.00054641
0.000146918
-0.000685402
0.000138992
-0.000804701
0.000119299
-0.000892149
8.74479e-05
-0.000935898
4.37485e-05
-0.000926243
-9.65499e-06
-0.000858568
-6.76748e-05
-0.000735933
-0.000122635
-0.000571087
-0.000164845
-0.000386253
-0.000184835
-0.000210072
-0.000176181
-7.16526e-05
-0.00013842
7.53064e-06
-7.91834e-05
2.3597e-05
-1.60665e-05
2.35969e-05
-4.70769e-05
4.26777e-05
-0.000210003
0.000206295
-0.000473794
0.000355975
-0.000806028
0.000457667
-0.00117279
0.000509668
-0.00154262
0.000516746
-0.00188602
0.00048239
-0.00217412
0.000407397
-0.00237861
0.000291935
-0.00247378
0.000138925
-0.00244068
-4.27535e-05
-0.00227174
-0.000236617
-0.00197639
-0.000417982
-0.00158359
-0.000557649
-0.00114111
-0.000627314
-0.000709513
-0.000607778
-0.000350413
-0.00049752
-0.000110603
-0.000318993
-5.6686e-06
-0.000121001
1.79282e-05
-0.000111453
0.00015413
-0.000405326
0.000500168
-0.000834761
0.00078541
-0.00135039
0.000973297
-0.00190532
0.0010646
-0.00245608
0.00106751
-0.00296138
0.00098769
-0.00338095
0.000826965
-0.00367611
0.000587095
-0.00381268
0.000275502
-0.00376593
-8.95073e-05
-0.00352642
-0.000476131
-0.003106
-0.000838403
-0.0025416
-0.00112204
-0.00189516
-0.00127376
-0.00124729
-0.00125565
-0.000683477
-0.00106134
-0.000273875
-0.000728595
-5.21075e-05
-0.000342769
-3.41793e-05
-0.000173177
0.000327307
-0.000593718
0.000920708
-0.00117948
0.00137118
-0.00186214
0.00165596
-0.00258345
0.0017859
-0.00329161
0.00177567
-0.00393803
0.00163411
-0.00447545
0.00136439
-0.00485854
0.000970183
-0.00504679
0.000463748
-0.00500953
-0.00012676
-0.00473214
-0.000753525
-0.00422298
-0.00134756
-0.00351921
-0.00182582
-0.00268947
-0.0021035
-0.00183013
-0.00211498
-0.00105164
-0.00183983
-0.000454581
-0.00132565
-0.00010196
-0.000695389
-0.000136139
-0.000228306
0.000555614
-0.000763712
0.00145611
-0.00149121
0.00209868
-0.00232417
0.00248891
-0.0031946
0.00265633
-0.00404525
0.00262632
-0.00482368
0.00241253
-0.00547904
0.00201975
-0.00596167
0.00145282
-0.00622529
0.000727372
-0.00623143
-0.000120618
-0.00595539
-0.00102957
-0.0053949
-0.00190804
-0.00457899
-0.00264173
-0.00357589
-0.0031066
-0.00249492
-0.00319595
-0.0014758
-0.00285895
-0.000660971
-0.00214048
-0.000156598
-0.00119976
-0.000292736
-0.000274793
0.000830407
-0.000908234
0.00208956
-0.00175768
0.00294812
-0.00272091
0.00345214
-0.0037225
0.00365793
-0.0047024
0.00360622
-0.00560735
0.00331748
-0.00638573
0.00279813
-0.00698556
0.00205264
-0.00735503
0.00109684
-0.00744603
-2.96184e-05
-0.00721875
-0.00125684
-0.00665306
-0.00247374
-0.00576029
-0.0035345
-0.00459878
-0.0042681
-0.00328511
-0.00450963
-0.00199097
-0.00415309
-0.000914139
-0.00321731
-0.00022326
-0.00189064
-0.000515996
-0.000310714
0.00114112
-0.0010209
0.00279974
-0.00196695
0.00389417
-0.00303494
0.00452013
-0.00414472
0.00476771
-0.00523606
0.00469757
-0.00625775
0.00433916
-0.00716025
0.00370063
-0.00789163
0.00278402
-0.008396
0.00160121
-0.00861415
0.000188534
-0.0084899
-0.0013811
-0.00797785
-0.00298579
-0.00706154
-0.00445081
-0.00577624
-0.0055534
-0.00423341
-0.00605245
-0.0026328
-0.00575371
-0.00123953
-0.00461058
-0.000311405
-0.00281876
-0.000827402
-0.000334156
0.00147528
-0.00109555
0.00356113
-0.002107
0.00490562
-0.00324693
0.00566006
-0.0044332
0.00595398
-0.00560788
0.00587225
-0.00672457
0.00545584
-0.00773896
0.00471503
-0.00860252
0.00364758
-0.00925838
0.00225706
-0.00963971
0.000569867
-0.00967262
-0.00134819
-0.00928432
-0.00337409
-0.00842124
-0.00531389
-0.00707922
-0.00689542
-0.00534357
-0.0077881
-0.00342562
-0.00767167
-0.0016617
-0.00637449
-0.000431581
-0.00404889
-0.00125898
-0.000343866
0.00181914
-0.00112767
0.00434494
-0.00216777
0.00594572
-0.00333857
0.00683086
-0.00455827
0.00717368
-0.00577345
0.00708743
-0.00694514
0.00662754
-0.00803778
0.00580767
-0.00901071
0.00462051
-0.00981161
0.00305797
-0.0103719
0.00113019
-0.0106057
-0.00111441
-0.0104147
-0.00356509
-0.00970329
-0.00602532
-0.00841168
-0.00818704
-0.0065703
-0.00962948
-0.00436862
-0.00987334
-0.00219924
-0.00854387
-0.000595132
-0.00565299
-0.00185412
-0.000340398
0.00215954
-0.00111711
0.00512165
-0.00214539
0.006974
-0.00329821
0.00798368
-0.00449605
0.00837152
-0.00569193
0.00828331
-0.00685687
0.00779247
-0.00796762
0.00691843
-0.00899666
0.00564955
-0.00990354
0.00396484
-0.0106273
0.00185395
-0.01108
-0.000661738
-0.0111479
-0.00349721
-0.0106959
-0.00647731
-0.0095983
-0.00928459
-0.00780011
-0.0114277
-0.00541866
-0.0122548
-0.00285706
-0.0111055
-0.000813804
-0.00769624
-0.00266792
-0.000327668
0.00248721
-0.00107161
0.00586559
-0.00204752
0.00794991
-0.00312809
0.00906425
-0.004238
0.00948143
-0.00533894
0.00938425
-0.00641444
0.00886798
-0.00745703
0.00796102
-0.00845739
0.0066499
-0.00939457
0.00490203
-0.0102266
0.00268601
-0.0108749
-1.3507e-05
-0.0112316
-0.00314045
-0.0111328
-0.0065761
-0.0103901
-0.0100274
-0.00884067
-0.0129771
-0.00647169
-0.0146238
-0.00361423
-0.0139629
-0.00109821
-0.0102123
-0.00376613
-0.000315006
0.00280221
-0.00101102
0.00656161
-0.00189905
0.00883794
-0.0028514
0.0100166
-0.0038
0.01043
-0.00471868
0.0103029
-0.00560656
0.00975587
-0.00647481
0.00882927
-0.00733608
0.00751117
-0.00819481
0.00576076
-0.00903625
0.00352744
-0.00981818
0.000768426
-0.0104385
-0.00252013
-0.0107416
-0.006273
-0.0104956
-0.0102733
-0.00942919
-0.0140435
-0.00735031
-0.0167027
-0.00440755
-0.0169057
-0.00145377
-0.013166
-0.0052199
-0.000320151
0.00312237
-0.00097202
0.00721348
-0.00174702
0.00961294
-0.00251683
0.0107864
-0.00322709
0.0111403
-0.00387018
0.010946
-0.00446521
0.0103509
-0.00504462
0.00940868
-0.00564488
0.00811143
-0.00629846
0.00641435
-0.00702456
0.00425354
-0.00781659
0.00156045
-0.00861884
-0.00171789
-0.00930324
-0.00558859
-0.00963535
-0.00994123
-0.00926553
-0.0144133
-0.00780701
-0.0181612
-0.00511449
-0.0195982
-0.00187244
-0.0164081
-0.00709234
-0.00037407
0.00349644
-0.00101323
0.00785264
-0.00166244
0.0102621
-0.00219632
0.0113203
-0.00258765
0.0115316
-0.00285861
0.011217
-0.00305482
0.0105471
-0.00323232
0.00958619
-0.00345093
0.00833004
-0.00376945
0.00673287
-0.0042398
0.00472389
-0.0048972
0.00221785
-0.00574096
-0.000874129
-0.00670346
-0.00462609
-0.00759856
-0.00904614
-0.00806159
-0.0139503
-0.00754675
-0.018676
-0.00554237
-0.0216026
-0.00231875
-0.0196317
-0.0094111
-0.000529447
0.00402588
-0.00121871
0.0085419
-0.00173228
0.0107757
-0.00196516
0.0115532
-0.00194331
0.0115098
-0.00173663
0.0110103
-0.00142605
0.0102365
-0.00109331
0.00925345
-0.000819191
0.00805592
-0.000683729
0.0065974
-0.000765241
0.0048054
-0.0011363
0.00258891
-0.0018525
-0.000157935
-0.00292496
-0.00355363
-0.00426454
-0.00770656
-0.00557758
-0.0126372
-0.00625523
-0.0179984
-0.00542587
-0.022432
-0.00270917
-0.0223484
-0.0121203
-0.000868733
0.00489461
-0.00168415
0.00935732
-0.0020135
0.0111051
-0.00182738
0.011367
-0.00125254
0.0109349
-0.000432095
0.0101899
0.00050822
0.00929621
0.00146083
0.00830084
0.00232852
0.00718823
0.00301744
0.00590849
0.00343196
0.00439088
0.00347255
0.00254832
0.00303761
0.000277003
0.00203948
-0.0025555
0.000444154
-0.00611123
-0.00160996
-0.0105831
-0.00360093
-0.0160074
-0.00441534
-0.0216175
-0.00288084
-0.0238829
-0.0150011
-0.00149474
0.00638936
-0.00241122
0.0102738
-0.00233096
0.0110248
-0.00145105
0.0104871
-7.6145e-05
0.00956002
0.00155328
0.00856043
0.0032667
0.00758279
0.00493958
0.00662795
0.00647017
0.00565765
0.00776294
0.00461572
0.00871777
0.00343605
0.00922262
0.00204348
0.00914727
0.000352346
0.00834964
-0.00175787
0.0066835
-0.00444509
0.00408872
-0.00798834
0.000840758
-0.0127594
-0.00200516
-0.0187716
-0.00250291
-0.0233852
-0.017504
-0.00234101
0.00873036
-0.0028199
0.0107527
-0.00158539
0.00979029
0.000573869
0.00832788
0.0031213
0.00701259
0.00575795
0.00592378
0.00831752
0.00502322
0.010699
0.00424652
0.0128262
0.00353041
0.0146252
0.00281669
0.0160107
0.00205051
0.016877
0.00117721
0.0170879
0.000141503
0.0164809
-0.00115096
0.0148419
-0.00280603
0.0119354
-0.00508187
0.0076498
-0.00847381
0.00261201
-0.0137338
-0.000908526
-0.0198646
-0.0184125
-0.00200263
0.010733
0.000357661
0.0083924
0.00431899
0.00582896
0.00833387
0.00431301
0.0120918
0.00325468
0.0154941
0.00252149
0.0185181
0.00199916
0.0211646
0.00160008
0.0234282
0.0012668
0.0252852
0.000959615
0.0266876
0.000648204
0.0275564
0.000308416
0.0277823
-8.44282e-05
0.0272132
-0.000581874
0.0256275
-0.00122032
0.0226957
-0.0021501
0.0179511
-0.00372918
0.01095
-0.00673275
0.00302462
-0.0119392
-0.0153879
0.010733
0.0191254
0.0249544
0.0292674
0.032522
0.0350435
0.0370427
0.0386428
0.0399096
0.0408692
0.0415174
0.0418258
0.0417414
0.0411595
0.0399392
0.0377891
0.0340599
0.0273272
0.0153879
)
;

boundaryField
{
    movingWall
    {
        type            calculated;
        value           uniform 0;
    }
    fixedWalls
    {
        type            calculated;
        value           uniform 0;
    }
    frontAndBack
    {
        type            empty;
    }
}


// ************************************************************************* //
