/*--------------------------------*- C++ -*----------------------------------*\
  =========                 |
  \\      /  F ield         | OpenFOAM: The Open Source CFD Toolbox
   \\    /   O peration     | Website:  https://openfoam.org
    \\  /    A nd           | Version:  13
     \\/     M anipulation  |
\*---------------------------------------------------------------------------*/
FoamFile
{
    format      ascii;
    class       volScalarField;
    location    "6";
    object      p;
}
// * * * * * * * * * * * * * * * * * * * * * * * * * * * * * * * * * * * * * //

dimensions      [0 2 -2 0 0 0 0];

internalField   nonuniform List<scalar> 
400
(
-2.27909e-08
-0.000499808
-0.00102464
-0.00140184
-0.00152151
-0.00134088
-0.000843848
-2.79493e-05
0.00109212
0.00247301
0.00403055
0.00563243
0.00710775
0.00827007
0.00896
0.00909505
0.00871152
0.00799031
0.00717264
0.00666772
0.000495369
-1.8318e-05
-0.00046634
-0.000744561
-0.000807566
-0.000628754
-0.000195115
0.000498595
0.00144473
0.00261164
0.00393138
0.00529832
0.00656398
0.00756865
0.00817391
0.00830779
0.00800027
0.0073952
0.00671458
0.00618939
0.00104694
0.000399449
-7.42111e-05
-0.000322617
-0.000372207
-0.000219732
0.000141716
0.000721879
0.00152477
0.00253517
0.00370391
0.0049402
0.00610985
0.00705669
0.0076373
0.00776767
0.00746086
0.00683695
0.00607823
0.00536571
0.00142587
0.000586547
1.84043e-05
-0.000260956
-0.000343398
-0.000247964
2.70951e-05
0.000499007
0.00118803
0.00209962
0.00320415
0.00442474
0.00562639
0.0066373
0.00728334
0.00744276
0.00709597
0.00634576
0.00536286
0.00434817
0.00141786
0.000384514
-0.000298018
-0.000639512
-0.000788903
-0.000782679
-0.000620134
-0.000272106
0.000303114
0.00113731
0.00222484
0.00351101
0.0048529
0.00605309
0.00688591
0.00716362
0.00680793
0.00589486
0.00459987
0.00318647
0.000849683
-0.000362454
-0.00116356
-0.00158999
-0.00184025
-0.00196351
-0.00195574
-0.00177109
-0.00134019
-0.000595472
0.000498573
0.00190121
0.00348825
0.00502816
0.00622321
0.00678289
0.00652658
0.00547326
0.00380175
0.00187907
-0.000427607
-0.00179477
-0.00271263
-0.00324575
-0.00363636
-0.00394336
-0.00415666
-0.0042099
-0.00399913
-0.00340937
-0.00234985
-0.000809213
0.0011142
0.00316861
0.00497004
0.00607928
0.00614439
0.00506235
0.00298154
0.000414019
-0.00253855
-0.00403157
-0.00506212
-0.00572541
-0.00630352
-0.00686498
-0.00739379
-0.00780178
-0.00794452
-0.00764561
-0.00673505
-0.00511119
-0.00280705
-6.13746e-05
0.00265783
0.00471523
0.00548912
0.00463675
0.00218267
-0.00118347
-0.00557583
-0.00716124
-0.00829745
-0.00911259
-0.00992758
-0.0108244
-0.0117855
-0.0127038
-0.0133922
-0.0136002
-0.0130505
-0.0115059
-0.00887034
-0.00530524
-0.00132452
0.00221298
0.00429759
0.00416163
0.00151178
-0.00279402
-0.0095917
-0.0112318
-0.0124575
-0.0134313
-0.0145177
-0.015821
-0.0173316
-0.0189316
-0.0203944
-0.0213894
-0.0215076
-0.0203285
-0.0175538
-0.0131647
-0.00762916
-0.00200035
0.0022226
0.00360106
0.0011837
-0.0041185
-0.0145955
-0.0162463
-0.0175232
-0.0186229
-0.0199696
-0.0217055
-0.0238432
-0.0262662
-0.0287185
-0.0307917
-0.0319339
-0.031506
-0.0289353
-0.0239057
-0.0166881
-0.00840629
-0.00106472
0.00297424
0.00159289
-0.00453991
-0.0205671
-0.0221705
-0.0234155
-0.0245305
-0.0260382
-0.0281424
-0.0308946
-0.0341937
-0.0377658
-0.0411353
-0.0436128
-0.0443375
-0.0423912
-0.0370847
-0.0283079
-0.0170283
-0.00560961
0.00251958
0.00343693
-0.00290685
-0.0275007
-0.0289592
-0.0300055
-0.0308965
-0.0323312
-0.034607
-0.03783
-0.0419211
-0.0465956
-0.0513202
-0.0552823
-0.0574072
-0.0564539
-0.051288
-0.0412818
-0.0269718
-0.0107492
0.00300591
0.00793005
0.00276969
-0.0355047
-0.0366087
-0.0371399
-0.0373763
-0.038332
-0.0404332
-0.043844
-0.0484992
-0.0540931
-0.0600326
-0.0653915
-0.0689055
-0.0690455
-0.0642481
-0.0533176
-0.0361376
-0.014699
0.00612762
0.0171386
0.0156656
-0.0449999
-0.04523
-0.0446549
-0.0435454
-0.0434379
-0.0448984
-0.0481233
-0.0530239
-0.0592384
-0.0660883
-0.0725246
-0.0771054
-0.0780542
-0.0734213
-0.0614993
-0.0414337
-0.0144695
0.014816
0.0344787
0.040497
-0.0572054
-0.0552391
-0.0524586
-0.0489715
-0.0470642
-0.0473698
-0.0500325
-0.0548632
-0.0613776
-0.0687604
-0.0758062
-0.0808802
-0.0819671
-0.0767855
-0.0631823
-0.0395955
-0.00639586
0.0332664
0.0651798
0.083857
-0.0748919
-0.0672444
-0.0602976
-0.0530657
-0.0486067
-0.047346
-0.0492025
-0.0537591
-0.0603256
-0.0678894
-0.0750445
-0.079935
-0.0802952
-0.0734917
-0.0569465
-0.0284281
0.012575
0.0658817
0.114985
0.153986
-0.107005
-0.0835024
-0.0687787
-0.0557812
-0.0478851
-0.0447282
-0.0456738
-0.0498909
-0.0563723
-0.06385
-0.0706931
-0.0748143
-0.0736916
-0.0642928
-0.04357
-0.00834754
0.0432261
0.113248
0.186473
0.261667
-0.167386
-0.0997549
-0.0727187
-0.052318
-0.0412877
-0.0371543
-0.0380661
-0.0425797
-0.049367
-0.0569631
-0.0635944
-0.0670351
-0.0645742
-0.0527033
-0.0279331
0.0143875
0.0783861
0.170791
0.283861
0.444097
-0.40147
-0.138149
-0.0732414
-0.0449786
-0.0308126
-0.0263745
-0.0280413
-0.0334291
-0.0409278
-0.0489945
-0.0558278
-0.059192
-0.0563633
-0.0440117
-0.0173137
0.0302788
0.107024
0.234855
0.425617
0.791872
)
;

boundaryField
{
    movingWall
    {
        type            zeroGradient;
    }
    fixedWalls
    {
        type            zeroGradient;
    }
    frontAndBack
    {
        type            empty;
    }
}


// ************************************************************************* //
