/*--------------------------------*- C++ -*----------------------------------*\
  =========                 |
  \\      /  F ield         | OpenFOAM: The Open Source CFD Toolbox
   \\    /   O peration     | Website:  https://openfoam.org
    \\  /    A nd           | Version:  13
     \\/     M anipulation  |
\*---------------------------------------------------------------------------*/
FoamFile
{
    format      ascii;
    class       surfaceScalarField;
    location    "6";
    object      phi;
}
// * * * * * * * * * * * * * * * * * * * * * * * * * * * * * * * * * * * * * //

dimensions      [0 3 -1 0 0 0 0];

internalField   nonuniform List<scalar> 
760
(
1.69955e-06
-1.6993e-06
-3.88616e-05
4.05611e-05
-0.000122196
8.33343e-05
-0.000234247
0.000112051
-0.000361091
0.000126844
-0.00049098
0.000129889
-0.000613657
0.000122676
-0.000719175
0.000105519
-0.000797303
7.81272e-05
-0.000837939
4.06367e-05
-0.000832559
-5.38035e-06
-0.00077659
-5.59686e-05
-0.000671834
-0.000104756
-0.000528385
-0.000143449
-0.000364824
-0.000163561
-0.000205961
-0.000158862
-7.79661e-05
-0.000127995
-1.3926e-06
-7.65735e-05
1.86716e-05
-2.00642e-05
1.86716e-05
-4.32435e-05
4.15442e-05
-0.000189057
0.000186374
-0.000422478
0.000316756
-0.000715032
0.000404605
-0.00103727
0.000449077
-0.00136211
0.000454729
-0.00166446
0.000425029
-0.00191991
0.000360975
-0.00210439
0.000262607
-0.00219555
0.000131791
-0.00217609
-2.48439e-05
-0.00203776
-0.000194292
-0.00178664
-0.000355876
-0.00144582
-0.000484276
-0.00105553
-0.00055385
-0.000668538
-0.000545852
-0.000340248
-0.000456285
-0.000114718
-0.000302103
-1.03185e-05
-0.000124463
8.35308e-06
-9.8113e-05
0.000139657
-0.000355386
0.000443647
-0.00073055
0.00069192
-0.00118091
0.000854969
-0.00166616
0.000934322
-0.00214917
0.000937743
-0.00259492
0.000870774
-0.00296915
0.000735206
-0.00323847
0.000531927
-0.00337242
0.000265741
-0.00334761
-4.96479e-05
-0.00315302
-0.000388887
-0.00279586
-0.000713032
-0.00230571
-0.00097443
-0.00173521
-0.00112435
-0.00115519
-0.00112586
-0.000642836
-0.000968642
-0.000263758
-0.000681181
-5.29401e-05
-0.000335281
-4.45871e-05
-0.000149825
0.000289482
-0.000514145
0.000807967
-0.00102276
0.00120053
-0.00161727
0.00144948
-0.00224792
0.00156498
-0.00287066
0.00156048
-0.00344411
0.00144423
-0.00392768
0.00121877
-0.0042814
0.000885648
-0.00446817
0.000452515
-0.0044582
-5.9622e-05
-0.00423468
-0.000612405
-0.00380113
-0.00114658
-0.00318719
-0.00158836
-0.00245194
-0.00185961
-0.00168101
-0.00189679
-0.000974662
-0.00167499
-0.000426355
-0.00122949
-9.7627e-05
-0.000664009
-0.000142214
-0.000196342
0.000485824
-0.000659018
0.00127064
-0.00129074
0.00183225
-0.00201781
0.00217655
-0.0027823
0.00232948
-0.00353546
0.00231363
-0.00423236
0.00214112
-0.00482857
0.00181499
-0.0052793
0.00133638
-0.00554096
0.000714171
-0.00557561
-2.49731e-05
-0.00535618
-0.000831836
-0.00487638
-0.00162638
-0.00415879
-0.00230595
-0.00326298
-0.00275541
-0.0022875
-0.00287228
-0.00136018
-0.00260232
-0.000613005
-0.00197666
-0.000146611
-0.0011304
-0.000288825
-0.000237032
0.000722855
-0.000786968
0.00182058
-0.00152899
0.00257427
-0.00237599
0.00302355
-0.00326361
0.0032171
-0.0041405
0.00319053
-0.00496059
0.00296121
-0.0056779
0.0025323
-0.00624429
0.00190276
-0.0066098
0.00107969
-0.00672569
9.09167e-05
-0.00655153
-0.001006
-0.00606365
-0.00211426
-0.00526914
-0.00310046
-0.00421985
-0.0038047
-0.00302278
-0.00406935
-0.00183684
-0.00378826
-0.000845725
-0.00296777
-0.000207279
-0.00176885
-0.000496103
-0.000271062
0.000993917
-0.000894696
0.00244421
-0.00173078
0.00341036
-0.0026814
0.00397416
-0.0036778
0.0042135
-0.00466825
0.00418098
-0.0056079
0.00390085
-0.00645167
0.00337608
-0.00715007
0.00260117
-0.00764781
0.00157743
-0.00788525
0.000328356
-0.00780456
-0.00108669
-0.00735913
-0.00255969
-0.00653079
-0.0039288
-0.00535169
-0.0049838
-0.00392675
-0.00549429
-0.00244377
-0.00527124
-0.00115098
-0.00426057
-0.000289124
-0.00263071
-0.000785227
-0.000297227
0.00129114
-0.000978005
0.00312499
-0.00188733
0.00431968
-0.0029191
0.00500593
-0.00400225
0.00529665
-0.00508675
0.00526548
-0.00613153
0.00494563
-0.0070953
0.00433985
-0.00793034
0.00343621
-0.00857894
0.00222603
-0.00897268
0.000722094
-0.00903616
-0.00102321
-0.00869615
-0.0028997
-0.00790003
-0.00472493
-0.00664471
-0.00623911
-0.00501405
-0.00712495
-0.0032113
-0.00707399
-0.00155544
-0.00591642
-0.000402963
-0.00378318
-0.00118819
-0.000314466
0.00160561
-0.00103291
0.00384343
-0.00198945
0.00527622
-0.00307193
0.00608842
-0.00420866
0.00643338
-0.00535327
0.00641009
-0.00647102
0.00606338
-0.00752786
0.00539669
-0.00848225
0.0043906
-0.00927929
0.00302307
-0.0098473
0.0012901
-0.0100979
-0.00077258
-0.0099324
-0.00306523
-0.00925781
-0.00539952
-0.00801961
-0.00747731
-0.00625327
-0.00889129
-0.0041475
-0.00917976
-0.00208148
-0.00798244
-0.000560879
-0.00530379
-0.00174907
-0.0003229
0.00192851
-0.00105807
0.0045786
-0.00203128
0.00624944
-0.00312542
0.00718256
-0.00426943
0.00757738
-0.00542236
0.00756302
-0.00655835
0.00719937
-0.0076543
0.00649264
-0.00868022
0.00541652
-0.00959138
0.00393423
-0.0103219
0.00202063
-0.0107803
-0.000314201
-0.0108504
-0.00299508
-0.0104006
-0.0058494
-0.009313
-0.00856488
-0.00754396
-0.0106603
-0.00521974
-0.011504
-0.00273952
-0.0104627
-0.000775952
-0.00726736
-0.00252502
-0.000325382
0.00225389
-0.00105832
0.00531154
-0.00201554
0.00720666
-0.00307477
0.00824178
-0.00416676
0.00866938
-0.00525788
0.00865414
-0.0063337
0.00827518
-0.00738576
0.00754471
-0.00840121
0.00643196
-0.00935366
0.00488668
-0.0101944
0.00286142
-0.0108432
0.000334588
-0.0111822
-0.00265616
-0.0110527
-0.00597882
-0.0102743
-0.00934335
-0.00869914
-0.0122355
-0.00633239
-0.0138707
-0.0035149
-0.0132802
-0.00106074
-0.00972151
-0.00358576
-0.000329675
0.00258357
-0.00104913
0.006031
-0.00195962
0.00811714
-0.00293245
0.00921462
-0.00390241
0.00963934
-0.00484614
0.00959787
-0.00576358
0.00919262
-0.00666429
0.00844541
-0.00755714
0.00732481
-0.00844122
0.00577076
-0.00929591
0.00371611
-0.010069
0.00110763
-0.0106602
-0.00206495
-0.0109091
-0.00572984
-0.01059
-0.0096625
-0.00944599
-0.0133795
-0.00730831
-0.0160084
-0.00434882
-0.0162396
-0.00142292
-0.0126474
-0.00500868
-0.000351645
0.00293521
-0.00106175
0.00674111
-0.00190114
0.00895653
-0.00273382
0.0100473
-0.00350407
0.0104096
-0.00420445
0.0102982
-0.00485343
0.0098416
-0.00548143
0.00907342
-0.00612179
0.00796516
-0.00680302
0.006452
-0.00753983
0.00445292
-0.00832018
0.00188798
-0.00908476
-0.00130036
-0.00970225
-0.00511235
-0.00993929
-0.00942547
-0.00945586
-0.0138629
-0.00788668
-0.0175776
-0.00511738
-0.0190089
-0.0018561
-0.0159087
-0.00686478
-0.000420163
0.00335538
-0.00114858
0.00746953
-0.00190032
0.00970827
-0.00253568
0.0106827
-0.00302105
0.010895
-0.00337535
0.0106525
-0.00364177
0.010108
-0.00387418
0.00930583
-0.00413061
0.00822159
-0.00446853
0.00678992
-0.00493879
0.00492318
-0.00557511
0.0025243
-0.00637469
-0.000500781
-0.00726688
-0.00422016
-0.00806266
-0.00862968
-0.00839953
-0.013526
-0.00774526
-0.0182319
-0.00561727
-0.0211369
-0.00232435
-0.0192016
-0.00918913
-0.000585253
0.00394063
-0.00138608
0.00827035
-0.00203118
0.0103534
-0.00239559
0.0110471
-0.0024936
0.010993
-0.00238798
0.0105469
-0.00215522
0.00987526
-0.00187478
0.0090254
-0.00162725
0.00797406
-0.00149428
0.00665695
-0.00155712
0.00498601
-0.00189132
0.0028585
-0.00255444
0.00016234
-0.0035563
-0.0032183
-0.00480402
-0.00738196
-0.0059997
-0.0123303
-0.00653742
-0.0176941
-0.00556419
-0.0221102
-0.00274002
-0.0220258
-0.0119291
-0.000925655
0.00486628
-0.0018595
0.0092042
-0.00233333
0.0108272
-0.0022944
0.0110081
-0.00185339
0.010552
-0.00114274
0.00983628
-0.00028197
0.00901449
0.00062401
0.00811942
0.00147742
0.00712065
0.00218084
0.00595353
0.00263309
0.00453377
0.00272816
0.00276343
0.0023586
0.0005319
0.00143363
-0.00229334
-7.90925e-05
-0.00586924
-0.00203577
-0.0103737
-0.00390914
-0.0158208
-0.00458811
-0.0214312
-0.00293264
-0.0236813
-0.0148618
-0.00153917
0.00640545
-0.00255732
0.0102223
-0.00261033
0.0108802
-0.00187258
0.0102704
-0.000630621
0.00931002
0.000888043
0.00831761
0.00252137
0.00738116
0.0041489
0.00649189
0.00566911
0.00560044
0.00698333
0.0046393
0.00798546
0.00353164
0.00855565
0.00219325
0.00855568
0.000531866
0.00783585
-0.0015735
0.00624713
-0.00428052
0.00373206
-0.00785858
0.000575946
-0.0126647
-0.00217045
-0.0186848
-0.00256267
-0.023289
-0.0174245
-0.00235698
0.00876243
-0.00289453
0.0107599
-0.00175526
0.00974093
0.000289284
0.00822584
0.00271933
0.00687997
0.0052507
0.00578625
0.00772816
0.00490369
0.0100578
0.00416224
0.0121668
0.00349151
0.0139802
0.00282584
0.0154085
0.0021033
0.0163386
0.00126318
0.0166261
0.000244336
0.016098
-0.00104533
0.0145327
-0.00271522
0.0116909
-0.00501684
0.0074634
-0.00843713
0.00248972
-0.0137111
-0.000962058
-0.0198373
-0.0183865
-0.00198905
0.0107515
0.000363256
0.00840759
0.00428228
0.00582191
0.00822426
0.00428386
0.0118933
0.00321096
0.015206
0.00247355
0.018153
0.00195664
0.020745
0.0015703
0.0229825
0.00125396
0.0248436
0.000964703
0.026278
0.00066896
0.0272012
0.000339929
0.0274891
-4.35501e-05
0.0269899
-0.000546099
0.0254664
-0.00119178
0.0225829
-0.00213329
0.0178707
-0.0037249
0.0108952
-0.00673565
0.0029999
-0.011942
-0.0153866
0.0107515
0.0191591
0.024981
0.0292648
0.0324758
0.0349493
0.036906
0.0384763
0.0397303
0.040695
0.0413639
0.0417038
0.0416603
0.0411142
0.0399224
0.0377891
0.0340642
0.0273286
0.0153866
)
;

boundaryField
{
    movingWall
    {
        type            calculated;
        value           uniform 0;
    }
    fixedWalls
    {
        type            calculated;
        value           uniform 0;
    }
    frontAndBack
    {
        type            empty;
    }
}


// ************************************************************************* //
