/*--------------------------------*- C++ -*----------------------------------*\
  =========                 |
  \\      /  F ield         | OpenFOAM: The Open Source CFD Toolbox
   \\    /   O peration     | Website:  https://openfoam.org
    \\  /    A nd           | Version:  13
     \\/     M anipulation  |
\*---------------------------------------------------------------------------*/
FoamFile
{
    format      ascii;
    class       surfaceScalarField;
    location    "6";
    object      phi_0;
}
// * * * * * * * * * * * * * * * * * * * * * * * * * * * * * * * * * * * * * //

dimensions      [0 3 -1 0 0 0 0];

internalField   nonuniform List<scalar> 
760
(
1.68815e-06
-1.6879e-06
-3.8862e-05
4.05501e-05
-0.000122162
8.32998e-05
-0.00023416
0.000111998
-0.000360939
0.000126779
-0.000490758
0.000129819
-0.000613365
0.000122607
-0.000718824
0.000105459
-0.000796908
7.80847e-05
-0.000837528
4.06199e-05
-0.000832162
-5.36568e-06
-0.000776241
-5.59214e-05
-0.000671559
-0.000104682
-0.000528201
-0.000143358
-0.000364732
-0.00016347
-0.000205945
-0.000158787
-7.79933e-05
-0.000127951
-1.42667e-06
-7.65666e-05
1.86509e-05
-2.00776e-05
1.8651e-05
-4.32287e-05
4.15408e-05
-0.000188976
0.000186298
-0.000422279
0.000316603
-0.000714675
0.000404394
-0.00103673
0.000448831
-0.00136138
0.000454471
-0.00166356
0.000424784
-0.00191887
0.00036077
-0.00210325
0.00026247
-0.00219438
0.000131746
-0.00217496
-2.47819e-05
-0.00203676
-0.000194122
-0.00178583
-0.000355617
-0.00144522
-0.000483963
-0.00105516
-0.000553533
-0.000668362
-0.000545583
-0.000340207
-0.000456107
-0.000114741
-0.000302032
-1.03404e-05
-0.000124478
8.31053e-06
-9.80617e-05
0.000139602
-0.000355192
0.000443428
-0.000730143
0.000691553
-0.00118024
0.000854496
-0.0016652
0.00093379
-0.00214793
0.000937199
-0.00259342
0.000870269
-0.00296744
0.000734794
-0.00323663
0.00053166
-0.00337055
0.000265664
-0.00334582
-4.95099e-05
-0.0031514
-0.000388538
-0.00279451
-0.000712507
-0.00230468
-0.000973798
-0.00173451
-0.00112371
-0.00115479
-0.0011253
-0.000642661
-0.000968237
-0.000263717
-0.000680976
-5.29451e-05
-0.00033525
-4.46346e-05
-0.000149734
0.000289336
-0.000513833
0.000807527
-0.00102214
0.00119986
-0.00161629
0.00144865
-0.00224657
0.00156407
-0.00286893
0.00155956
-0.00344206
0.0014434
-0.00392537
0.00121811
-0.00427894
0.000885226
-0.00446568
0.000452403
-0.0044558
-5.939e-05
-0.0042325
-0.000611838
-0.00379927
-0.00114574
-0.00318572
-0.00158734
-0.00245089
-0.00185854
-0.00168035
-0.00189583
-0.000974323
-0.00167427
-0.000426233
-0.00122907
-9.76092e-05
-0.000663874
-0.000142244
-0.000196216
0.000485552
-0.000658603
0.00126991
-0.00128994
0.00183119
-0.00201657
0.00217528
-0.00278061
0.00232811
-0.00353334
0.00231229
-0.00422986
0.00213992
-0.00482579
0.00181403
-0.00527635
0.00133578
-0.00553796
0.000714014
-0.00557271
-2.46433e-05
-0.0053535
-0.00083104
-0.00487405
-0.00162519
-0.0041569
-0.00230449
-0.00326157
-0.00275386
-0.00228657
-0.00287084
-0.00135966
-0.00260117
-0.000612792
-0.00197593
-0.000146567
-0.0011301
-0.000288811
-0.000236881
0.000722433
-0.00078648
0.00181951
-0.00152806
0.00257277
-0.00237457
0.00302179
-0.0032617
0.00321524
-0.00413813
0.00318872
-0.00495781
0.0029596
-0.00567482
0.00253104
-0.00624101
0.00190198
-0.00660647
0.00107948
-0.00672244
9.13257e-05
-0.00654849
-0.00100499
-0.00606096
-0.00211272
-0.00526689
-0.00309856
-0.00421812
-0.00380264
-0.00302159
-0.00406737
-0.00183614
-0.00378662
-0.000845417
-0.00296665
-0.000207208
-0.00176831
-0.000496019
-0.0002709
0.000993334
-0.00089418
0.00244279
-0.0017298
0.0034084
-0.00267992
0.0039719
-0.00367582
0.00421114
-0.0046658
0.0041787
-0.00560505
0.00389885
-0.00644852
0.00337451
-0.00714673
0.00260019
-0.0076444
0.00157715
-0.00788189
0.000328822
-0.00780138
-0.0010855
-0.00735625
-0.00255786
-0.00652832
-0.00392649
-0.00534972
-0.00498124
-0.00392533
-0.00549177
-0.00244291
-0.00526905
-0.00115057
-0.00425898
-0.000289023
-0.00262986
-0.000785042
-0.000297073
0.00129041
-0.000977513
0.00312323
-0.0018864
0.00431728
-0.0029177
0.0050032
-0.00400038
0.00529383
-0.00508446
0.00526278
-0.00612887
0.00494326
-0.00709237
0.00433801
-0.00792724
0.00343506
-0.00857577
0.00222568
-0.00896953
0.000722591
-0.00903315
-0.00102189
-0.00869336
-0.00289764
-0.00789756
-0.0047223
-0.00664266
-0.00623613
-0.0050125
-0.00712192
-0.0032103
-0.00707125
-0.00155495
-0.00591433
-0.000402832
-0.00378198
-0.00118787
-0.00031434
0.00160475
-0.0010325
0.00384139
-0.00198868
0.00527346
-0.00307077
0.00608529
-0.00420711
0.00643017
-0.00535137
0.00640704
-0.00646884
0.00606073
-0.00752547
0.00539464
-0.00847973
0.00438931
-0.00927672
0.00302267
-0.00984475
0.00129062
-0.0100954
-0.000771183
-0.00993004
-0.00306305
-0.00925564
-0.0053967
-0.00801771
-0.00747406
-0.00625175
-0.00888789
-0.00414645
-0.00917655
-0.00208093
-0.00797985
-0.00056072
-0.00530219
-0.00174859
-0.000322821
0.00192757
-0.0010578
0.00457638
-0.00203077
0.00624643
-0.00312464
0.00717916
-0.00426839
0.00757391
-0.0054211
0.00755975
-0.00655691
0.00719655
-0.00765276
0.00649048
-0.00867863
0.00541518
-0.00958978
0.00393382
-0.0103203
0.00202116
-0.0107787
-0.000312782
-0.0108489
-0.00299287
-0.0103991
-0.00584655
-0.00931157
-0.00856155
-0.0075427
-0.0106568
-0.00521878
-0.0115005
-0.00273896
-0.0104597
-0.000775774
-0.00726537
-0.00252437
-0.000325366
0.00225294
-0.00105825
0.00530926
-0.00201537
0.00720356
-0.00307449
0.00823828
-0.00416638
0.00866581
-0.00525744
0.0086508
-0.00633323
0.00827234
-0.00738531
0.00754256
-0.0084008
0.00643068
-0.00935331
0.00488633
-0.0101941
0.00286198
-0.0108429
0.000336001
-0.0111818
-0.00265402
-0.0110522
-0.00597609
-0.0102736
-0.00934016
-0.0086984
-0.012232
-0.00633169
-0.0138672
-0.00351441
-0.013277
-0.00106056
-0.00971922
-0.00358493
-0.000329732
0.00258267
-0.00104928
0.00602881
-0.00195985
0.00811413
-0.00293276
0.00921119
-0.00390281
0.00963585
-0.00484663
0.00959463
-0.0057642
0.0091899
-0.00666504
0.00844341
-0.00755803
0.00732366
-0.00844222
0.00577052
-0.00929698
0.00371674
-0.01007
0.00110902
-0.0106611
-0.00206294
-0.0109098
-0.00572735
-0.0105903
-0.00965964
-0.00944598
-0.0133763
-0.00730805
-0.0160051
-0.00434852
-0.0162365
-0.00142277
-0.012645
-0.0050077
-0.000351776
0.00293444
-0.00106213
0.00673916
-0.00190178
0.00895378
-0.00273473
0.0100441
-0.00350525
0.0104064
-0.00420589
0.0102953
-0.00485511
0.00983913
-0.00548335
0.00907165
-0.0061239
0.00796421
-0.00680528
0.0064519
-0.00754215
0.00445361
-0.00832245
0.00188932
-0.00908687
-0.00129852
-0.00970405
-0.00511017
-0.00994064
-0.00942305
-0.00945669
-0.0138603
-0.00788701
-0.0175748
-0.00511737
-0.0190061
-0.00185601
-0.0159063
-0.00686371
-0.000420358
0.0033548
-0.00114916
0.00746795
-0.00190133
0.00970596
-0.00253714
0.0106799
-0.00302293
0.0108922
-0.00337762
0.01065
-0.00364438
0.0101059
-0.00387708
0.00930434
-0.00413371
0.00822084
-0.00447175
0.00678994
-0.00494203
0.00492389
-0.00557827
0.00252556
-0.00637765
-0.000499146
-0.00726951
-0.00421831
-0.00806482
-0.00862774
-0.00840109
-0.013524
-0.00774616
-0.0182297
-0.0056176
-0.0211347
-0.00232436
-0.0191996
-0.00918807
-0.00058549
0.00394029
-0.00138679
0.00826925
-0.00203245
0.0103516
-0.00239744
0.0110449
-0.002496
0.0109907
-0.00239086
0.0105448
-0.00215849
0.00987352
-0.00187834
0.0090242
-0.00163098
0.00797348
-0.00149806
0.00665702
-0.00156084
0.00498667
-0.00189489
0.00285961
-0.00255777
0.000163738
-0.0035593
-0.00321679
-0.00480658
-0.00738045
-0.0060017
-0.0123289
-0.00653874
-0.0176927
-0.00556483
-0.0221086
-0.00274016
-0.0220242
-0.0119282
-0.000925894
0.00486618
-0.00186024
0.0092036
-0.00233469
0.0108261
-0.0022964
0.0110066
-0.00185599
0.0105503
-0.00114587
0.00983469
-0.000285498
0.00901315
0.000620216
0.00811848
0.0014735
0.00712019
0.00217695
0.00595358
0.00262933
0.00453428
0.00272462
0.00276431
0.00235536
0.000533007
0.00143073
-0.00229216
-8.16044e-05
-0.00586812
-0.00203781
-0.0103727
-0.00391061
-0.0158199
-0.00458893
-0.0214303
-0.00293288
-0.0236803
-0.0148611
-0.00153935
0.00640553
-0.00255792
0.0102222
-0.00261149
0.0108796
-0.00187435
0.0102695
-0.000632986
0.00930896
0.000885162
0.00831654
0.00251809
0.00738022
0.00414536
0.00649121
0.00566546
0.00560009
0.00697974
0.0046393
0.00798204
0.00353198
0.0085525
0.00219386
0.00855287
0.000532641
0.00783339
-0.00157268
0.00624504
-0.00427977
0.00373034
-0.00785798
0.000574677
-0.0126642
-0.00217124
-0.0186844
-0.00256296
-0.0232886
-0.0174241
-0.00235704
0.00876257
-0.00289482
0.01076
-0.00175593
0.00974075
0.000288127
0.00822544
0.00271767
0.00687942
0.00524855
0.00578565
0.00772563
0.00490315
0.010055
0.00416183
0.0121638
0.00349128
0.0139773
0.00282583
0.0154058
0.00210349
0.0163361
0.00126353
0.016624
0.000244781
0.0160961
-0.00104486
0.0145312
-0.0027148
0.0116897
-0.00501654
0.0074625
-0.00843696
0.00248913
-0.013711
-0.000962316
-0.0198371
-0.0183864
-0.00198899
0.0107516
0.000363301
0.00840766
0.00428216
0.00582189
0.00822385
0.00428374
0.0118925
0.00321078
0.0152048
0.00247335
0.0181515
0.00195645
0.0207432
0.00157015
0.0229806
0.00125389
0.0248417
0.000964707
0.0262761
0.000669036
0.0271996
0.000340058
0.0274877
-4.33676e-05
0.0269888
-0.000545939
0.0254657
-0.00119165
0.0225823
-0.00213321
0.0178703
-0.00372488
0.0108949
-0.00673566
0.00299978
-0.011942
-0.0153866
0.0107516
0.0191592
0.0249811
0.0292649
0.0324756
0.034949
0.0369054
0.0384756
0.0397295
0.0406942
0.0413632
0.0417033
0.0416599
0.041114
0.0399223
0.0377891
0.0340642
0.0273286
0.0153866
)
;

boundaryField
{
    movingWall
    {
        type            calculated;
        value           uniform 0;
    }
    fixedWalls
    {
        type            calculated;
        value           uniform 0;
    }
    frontAndBack
    {
        type            empty;
    }
}


// ************************************************************************* //
