/*--------------------------------*- C++ -*----------------------------------*\
  =========                 |
  \\      /  F ield         | OpenFOAM: The Open Source CFD Toolbox
   \\    /   O peration     | Website:  https://openfoam.org
    \\  /    A nd           | Version:  13
     \\/     M anipulation  |
\*---------------------------------------------------------------------------*/
FoamFile
{
    format      ascii;
    class       volVectorField;
    location    "6";
    object      U;
}
// * * * * * * * * * * * * * * * * * * * * * * * * * * * * * * * * * * * * * //

dimensions      [0 1 -1 0 0 0 0];

internalField   nonuniform List<vector> 
400
(
(0.000176013 -0.000175355 0)
(-0.000145662 3.35641e-06 0)
(-0.00144914 0.000196117 0)
(-0.00346639 0.000316387 0)
(-0.00591449 0.000377181 0)
(-0.00853332 0.000397889 0)
(-0.0111065 0.000388533 0)
(-0.013436 0.000349853 0)
(-0.0153199 0.00027714 0)
(-0.0165506 0.000165728 0)
(-0.0169331 1.68709e-05 0)
(-0.0163256 -0.000159564 0)
(-0.0146904 -0.00033779 0)
(-0.0121422 -0.000482662 0)
(-0.00897209 -0.000555341 0)
(-0.00563017 -0.000525301 0)
(-0.00265377 -0.000381947 0)
(-0.00052292 -0.000147687 0)
(0.00043451 9.87628e-05 0)
(0.000274649 0.000262594 0)
(-1.07111e-05 0.000143254 0)
(-0.00184064 0.00173347 0)
(-0.00575135 0.00330074 0)
(-0.011161 0.00436968 0)
(-0.0174481 0.00492403 0)
(-0.0240463 0.00503046 0)
(-0.0304394 0.00473884 0)
(-0.0361367 0.00406124 0)
(-0.0406507 0.00299123 0)
(-0.0435054 0.00154014 0)
(-0.044286 -0.000224515 0)
(-0.0427145 -0.00215269 0)
(-0.0387498 -0.00400188 0)
(-0.0326759 -0.00546513 0)
(-0.025136 -0.00623064 0)
(-0.0170938 -0.00607165 0)
(-0.00968911 -0.00494326 0)
(-0.00398397 -0.00305843 0)
(-0.000667956 -0.000958863 0)
(0.000193771 0.000457637 0)
(-0.000250671 0.00157092 0)
(-0.0038601 0.0057686 0)
(-0.0103703 0.00940768 0)
(-0.0188442 0.0118504 0)
(-0.0283934 0.0130758 0)
(-0.0382551 0.0131972 0)
(-0.0477148 0.0123024 0)
(-0.0560832 0.0104186 0)
(-0.0626784 0.00755411 0)
(-0.0668461 0.00377182 0)
(-0.0680244 -0.00073329 0)
(-0.0658414 -0.00558127 0)
(-0.0602342 -0.0101992 0)
(-0.0515588 -0.0138781 0)
(-0.0406452 -0.0159042 0)
(-0.0287668 -0.0157533 0)
(-0.0174757 -0.013309 0)
(-0.00829019 -0.00903456 0)
(-0.00231157 -0.00404778 0)
(5.29799e-05 -0.000152627 0)
(-0.000462043 0.00406849 0)
(-0.00578707 0.0120227 0)
(-0.0147839 0.0183007 0)
(-0.0261 0.0223714 0)
(-0.0385853 0.0243166 0)
(-0.0513322 0.0243325 0)
(-0.0634991 0.022552 0)
(-0.0742713 0.019019 0)
(-0.0828374 0.0137606 0)
(-0.0884099 0.00690537 0)
(-0.0902947 -0.00119903 0)
(-0.0879941 -0.00990588 0)
(-0.0813433 -0.0182476 0)
(-0.0706514 -0.0250252 0)
(-0.0568011 -0.029005 0)
(-0.0412709 -0.0292325 0)
(-0.0259993 -0.0254085 0)
(-0.0130364 -0.018205 0)
(-0.00407524 -0.00937261 0)
(-5.77424e-05 -0.00164335 0)
(-0.000642927 0.00755461 0)
(-0.00753209 0.0203408 0)
(-0.0188259 0.0297611 0)
(-0.0327606 0.0356457 0)
(-0.0479411 0.0383204 0)
(-0.0633513 0.0381268 0)
(-0.0780757 0.0352621 0)
(-0.0912307 0.0297836 0)
(-0.101921 0.0217256 0)
(-0.109249 0.0112645 0)
(-0.112374 -0.00111729 0)
(-0.110609 -0.0145055 0)
(-0.103581 -0.0275294 0)
(-0.0914092 -0.03843 0)
(-0.074888 -0.0453154 0)
(-0.0556087 -0.0465968 0)
(-0.0359135 -0.041571 0)
(-0.0185444 -0.0309714 0)
(-0.00605133 -0.0171915 0)
(-0.000148326 -0.00404492 0)
(-0.000797025 0.0119163 0)
(-0.00906245 0.0305254 0)
(-0.0224059 0.0435679 0)
(-0.0386965 0.0514547 0)
(-0.056329 0.0548987 0)
(-0.0742166 0.0544626 0)
(-0.0914169 0.0504338 0)
(-0.107027 0.042877 0)
(-0.120109 0.0318036 0)
(-0.129673 0.017391 0)
(-0.134707 0.000198276 0)
(-0.134284 -0.0186527 0)
(-0.12771 -0.0374059 0)
(-0.11475 -0.0536948 0)
(-0.0959312 -0.0648074 0)
(-0.0728106 -0.0682304 0)
(-0.0481062 -0.0624907 0)
(-0.025419 -0.0480898 0)
(-0.00851508 -0.0280286 0)
(-0.000251845 -0.00750512 0)
(-0.000923392 0.0170297 0)
(-0.0103434 0.0423322 0)
(-0.0254259 0.0594368 0)
(-0.0437355 0.0695215 0)
(-0.0635034 0.0738216 0)
(-0.0836118 0.0731997 0)
(-0.103138 0.0680637 0)
(-0.121209 0.0584766 0)
(-0.136892 0.0443849 0)
(-0.149138 0.0258943 0)
(-0.156778 0.00354483 0)
(-0.158603 -0.0214476 0)
(-0.153506 -0.04701 0)
(-0.140748 -0.0701696 0)
(-0.120357 -0.0872455 0)
(-0.093609 -0.0944461 0)
(-0.0634311 -0.0889901 0)
(-0.0343629 -0.070614 0)
(-0.0118228 -0.0427381 0)
(-0.0004104 -0.0123456 0)
(-0.00101782 0.0227506 0)
(-0.0113291 0.0554619 0)
(-0.0277638 0.0770021 0)
(-0.0476481 0.0894691 0)
(-0.0690962 0.0947432 0)
(-0.0909986 0.094067 0)
(-0.112497 0.0880046 0)
(-0.132806 0.0766118 0)
(-0.151057 0.0597239 0)
(-0.166206 0.037288 0)
(-0.176981 0.00969929 0)
(-0.181916 -0.0218771 0)
(-0.179461 -0.0552066 0)
(-0.168249 -0.0867971 0)
(-0.147568 -0.11193 0)
(-0.118041 -0.125188 0)
(-0.0824218 -0.121783 0)
(-0.0460372 -0.0997989 0)
(-0.0163778 -0.0625211 0)
(-0.000677085 -0.0190942 0)
(-0.00107687 0.0289085 0)
(-0.011979 0.0695516 0)
(-0.0293005 0.0957962 0)
(-0.0501851 0.110775 0)
(-0.0726687 0.117125 0)
(-0.0956829 0.116552 0)
(-0.118479 0.10982 0)
(-0.140416 0.0969865 0)
(-0.160771 0.0777395 0)
(-0.178599 0.0517867 0)
(-0.192641 0.0192451 0)
(-0.201279 -0.0189552 0)
(-0.202592 -0.0606435 0)
(-0.194555 -0.102026 0)
(-0.175508 -0.137446 0)
(-0.144984 -0.159645 0)
(-0.104925 -0.161076 0)
(-0.0608904 -0.136848 0)
(-0.0226147 -0.0888686 0)
(-0.00112679 -0.0285099 0)
(-0.00110471 0.0353182 0)
(-0.012294 0.0841865 0)
(-0.029982 0.115247 0)
(-0.0511644 0.132744 0)
(-0.0738226 0.140179 0)
(-0.0969576 0.139808 0)
(-0.119971 0.13266 0)
(-0.142428 0.118818 0)
(-0.163839 0.0978169 0)
(-0.183488 0.069072 0)
(-0.200289 0.0323092 0)
(-0.212674 -0.011969 0)
(-0.218543 -0.061943 0)
(-0.215339 -0.113877 0)
(-0.200379 -0.161521 0)
(-0.171708 -0.195867 0)
(-0.129636 -0.206019 0)
(-0.0788796 -0.182455 0)
(-0.0309628 -0.123397 0)
(-0.00187408 -0.0416101 0)
(-0.00112351 0.0418169 0)
(-0.0123687 0.0989474 0)
(-0.0299077 0.134707 0)
(-0.0505917 0.154512 0)
(-0.0723579 0.162845 0)
(-0.094309 0.162615 0)
(-0.11604 0.155191 0)
(-0.137382 0.140739 0)
(-0.158167 0.118671 0)
(-0.178041 0.0881033 0)
(-0.19629 0.0483105 0)
(-0.211654 -0.000789725 0)
(-0.222167 -0.0580395 0)
(-0.22504 -0.120227 0)
(-0.216744 -0.18113 0)
(-0.193648 -0.230539 0)
(-0.153637 -0.254126 0)
(-0.0990501 -0.23612 0)
(-0.0417386 -0.167499 0)
(-0.00309742 -0.0596834 0)
(-0.0011896 0.0483372 0)
(-0.0124621 0.113501 0)
(-0.0294377 0.153521 0)
(-0.0487968 0.175084 0)
(-0.0684424 0.183816 0)
(-0.0876394 0.183399 0)
(-0.106236 0.175626 0)
(-0.124387 0.16082 0)
(-0.142323 0.138336 0)
(-0.160162 0.107047 0)
(-0.177735 0.0657849 0)
(-0.194367 0.0138057 0)
(-0.208591 -0.0486254 0)
(-0.217847 -0.119333 0)
(-0.218238 -0.192952 0)
(-0.20468 -0.259138 0)
(-0.172175 -0.300894 0)
(-0.119037 -0.295309 0)
(-0.0549016 -0.221712 0)
(-0.0050626 -0.0842514 0)
(-0.00142125 0.0550333 0)
(-0.0130935 0.127738 0)
(-0.0293029 0.17112 0)
(-0.0465423 0.193401 0)
(-0.0627245 0.201608 0)
(-0.077408 0.200323 0)
(-0.0907931 0.191846 0)
(-0.103427 0.176722 0)
(-0.115985 0.154334 0)
(-0.129121 0.123405 0)
(-0.14331 0.082415 0)
(-0.158642 0.0299985 0)
(-0.174493 -0.0345577 0)
(-0.189079 -0.11051 0)
(-0.198856 -0.194208 0)
(-0.198027 -0.276646 0)
(-0.178954 -0.339958 0)
(-0.13471 -0.354767 0)
(-0.0696237 -0.28478 0)
(-0.00812088 -0.1169 0)
(-0.00204814 0.0624831 0)
(-0.015173 0.141938 0)
(-0.0306903 0.187094 0)
(-0.0450331 0.208368 0)
(-0.0562712 0.214602 0)
(-0.0645235 0.211397 0)
(-0.0705095 0.201583 0)
(-0.0752497 0.185953 0)
(-0.0798888 0.163977 0)
(-0.0856025 0.134333 0)
(-0.0935027 0.0952946 0)
(-0.104489 0.0450325 0)
(-0.118966 -0.0180413 0)
(-0.136367 -0.0947111 0)
(-0.154342 -0.183649 0)
(-0.167591 -0.27876 0)
(-0.167001 -0.364009 0)
(-0.140231 -0.406437 0)
(-0.0836966 -0.352552 0)
(-0.0126281 -0.158884 0)
(-0.00351243 0.0720428 0)
(-0.0201699 0.156963 0)
(-0.0351953 0.20121 0)
(-0.0456161 0.218813 0)
(-0.0500444 0.221028 0)
(-0.0496429 0.214521 0)
(-0.0459018 0.202554 0)
(-0.0404112 0.186097 0)
(-0.0347749 0.164697 0)
(-0.0306138 0.137053 0)
(-0.029564 0.101379 0)
(-0.0332193 0.0556164 0)
(-0.0429825 -0.00239376 0)
(-0.0596808 -0.0746742 0)
(-0.0828173 -0.162299 0)
(-0.108985 -0.263221 0)
(-0.129705 -0.366323 0)
(-0.128504 -0.44025 0)
(-0.0929211 -0.417018 0)
(-0.0186768 -0.210347 0)
(-0.00657436 0.0862829 0)
(-0.0301566 0.174027 0)
(-0.0441926 0.212851 0)
(-0.0484964 0.2229 0)
(-0.0430975 0.218517 0)
(-0.0309963 0.20721 0)
(-0.014768 0.192349 0)
(0.00335543 0.174844 0)
(0.0213776 0.154212 0)
(0.037378 0.129179 0)
(0.049392 0.0980054 0)
(0.05536 0.0586381 0)
(0.0531206 0.00875662 0)
(0.0406152 -0.0543026 0)
(0.0162914 -0.133389 0)
(-0.019359 -0.230626 0)
(-0.0611974 -0.342325 0)
(-0.0914302 -0.445427 0)
(-0.0905563 -0.465668 0)
(-0.0254297 -0.268902 0)
(-0.0126467 0.110573 0)
(-0.0469283 0.194791 0)
(-0.0556475 0.220412 0)
(-0.0479091 0.217412 0)
(-0.0268717 0.20351 0)
(0.00162344 0.186212 0)
(0.0337792 0.168242 0)
(0.0668771 0.149985 0)
(0.0987874 0.130698 0)
(0.127572 0.109071 0)
(0.151227 0.0834768 0)
(0.16754 0.0520565 0)
(0.173929 0.0127024 0)
(0.167557 -0.0372147 0)
(0.145235 -0.101155 0)
(0.104502 -0.1842 0)
(0.0448319 -0.290734 0)
(-0.0187546 -0.41199 0)
(-0.0664771 -0.482329 0)
(-0.0298344 -0.328294 0)
(-0.0215604 0.149031 0)
(-0.0659471 0.212882 0)
(-0.0517451 0.213312 0)
(-0.017539 0.192029 0)
(0.0290089 0.167854 0)
(0.079581 0.145813 0)
(0.130207 0.126606 0)
(0.178629 0.109495 0)
(0.223318 0.093276 0)
(0.262881 0.076594 0)
(0.295724 0.0580318 0)
(0.319889 0.0361049 0)
(0.33278 0.00919572 0)
(0.331386 -0.0247682 0)
(0.311617 -0.068696 0)
(0.269155 -0.12837 0)
(0.197877 -0.213805 0)
(0.104832 -0.334085 0)
(-0.00488887 -0.45045 0)
(-0.0235336 -0.377791 0)
(-0.0272971 0.229941 0)
(-0.0361606 0.223572 0)
(0.0463857 0.17665 0)
(0.125683 0.137667 0)
(0.202576 0.107919 0)
(0.27262 0.0861409 0)
(0.335201 0.0700194 0)
(0.390535 0.0574551 0)
(0.438839 0.0468475 0)
(0.479948 0.0369427 0)
(0.513153 0.0266862 0)
(0.537181 0.0151323 0)
(0.549853 0.00132366 0)
(0.548703 -0.0156985 0)
(0.529549 -0.0379531 0)
(0.487917 -0.0696934 0)
(0.413464 -0.120599 0)
(0.303581 -0.213306 0)
(0.125048 -0.348253 0)
(0.0234562 -0.378655 0)
(0.214619 0.13597 0)
(0.285716 0.0986706 0)
(0.445327 0.0570195 0)
(0.548238 0.0365431 0)
(0.621236 0.0240237 0)
(0.676867 0.0161342 0)
(0.720496 0.0111701 0)
(0.755331 0.00790817 0)
(0.783325 0.00556734 0)
(0.805423 0.0036617 0)
(0.821801 0.00186157 0)
(0.832056 -5.83394e-05 0)
(0.835244 -0.00234102 0)
(0.829931 -0.0048946 0)
(0.81296 -0.0083903 0)
(0.781824 -0.0134674 0)
(0.72418 -0.0232121 0)
(0.635369 -0.0406686 0)
(0.431302 -0.0913611 0)
(0.270877 -0.153553 0)
)
;

boundaryField
{
    movingWall
    {
        type            fixedValue;
        value           uniform (1 0 0);
    }
    fixedWalls
    {
        type            fixedValue;
        value           uniform (0 0 0);
    }
    frontAndBack
    {
        type            empty;
    }
}


// ************************************************************************* //
