/*--------------------------------*- C++ -*----------------------------------*\
  =========                 |
  \\      /  F ield         | OpenFOAM: The Open Source CFD Toolbox
   \\    /   O peration     | Website:  https://openfoam.org
    \\  /    A nd           | Version:  13
     \\/     M anipulation  |
\*---------------------------------------------------------------------------*/
FoamFile
{
    format      ascii;
    class       volVectorField;
    location    "6";
    object      U_0;
}
// * * * * * * * * * * * * * * * * * * * * * * * * * * * * * * * * * * * * * //

dimensions      [0 1 -1 0 0 0 0];

internalField   nonuniform List<vector> 
400
(
(0.000175872 -0.000175209 0)
(-0.000145871 3.42097e-06 0)
(-0.0014489 0.000196091 0)
(-0.00346525 0.00031629 0)
(-0.00591213 0.000377035 0)
(-0.00852957 0.00039771 0)
(-0.0111014 0.000388336 0)
(-0.0134295 0.000349659 0)
(-0.0153124 0.000276978 0)
(-0.0165424 0.000165633 0)
(-0.0169249 1.68721e-05 0)
(-0.016318 -0.000159449 0)
(-0.0146841 -0.000337572 0)
(-0.0121376 -0.00048238 0)
(-0.00896938 -0.00055506 0)
(-0.00562919 -0.000525094 0)
(-0.00265401 -0.000381888 0)
(-0.000523811 -0.000147805 0)
(0.000433754 9.86316e-05 0)
(0.000274485 0.000262421 0)
(-1.07567e-05 0.000143465 0)
(-0.00183996 0.00173294 0)
(-0.00574879 0.00329931 0)
(-0.0111556 0.00436755 0)
(-0.0174392 0.00492146 0)
(-0.0240337 0.00502769 0)
(-0.030423 0.00473614 0)
(-0.036117 0.00405892 0)
(-0.0406285 0.0029896 0)
(-0.0434819 0.00153951 0)
(-0.0442626 -0.000223932 0)
(-0.0426929 -0.00215086 0)
(-0.0387314 -0.00399901 0)
(-0.0326617 -0.00546164 0)
(-0.0251264 -0.00622713 0)
(-0.0170886 -0.00606875 0)
(-0.00968727 -0.00494148 0)
(-0.00398415 -0.00305799 0)
(-0.000668664 -0.000959318 0)
(0.000193554 0.000456959 0)
(-0.000250567 0.00157052 0)
(-0.00385806 0.00576604 0)
(-0.0103646 0.00940294 0)
(-0.0188336 0.0118441 0)
(-0.0283772 0.0130685 0)
(-0.038233 0.0131897 0)
(-0.0476871 0.0122952 0)
(-0.0560507 0.0104127 0)
(-0.0626425 0.00755018 0)
(-0.0668085 0.00377057 0)
(-0.0679872 -0.000731446 0)
(-0.0658068 -0.00557636 0)
(-0.0602042 -0.0101917 0)
(-0.0515348 -0.0138692 0)
(-0.040628 -0.0158951 0)
(-0.028756 -0.0157455 0)
(-0.0174703 -0.0133037 0)
(-0.0082885 -0.00903218 0)
(-0.0023116 -0.00404788 0)
(5.28169e-05 -0.000153617 0)
(-0.000461774 0.00406666 0)
(-0.00578358 0.0120165 0)
(-0.014775 0.0182907 0)
(-0.0260842 0.0223588 0)
(-0.038562 0.0243026 0)
(-0.0513012 0.0243182 0)
(-0.063461 0.0225389 0)
(-0.0742273 0.0190084 0)
(-0.0827892 0.0137538 0)
(-0.0883597 0.00690348 0)
(-0.0902451 -0.00119541 0)
(-0.0879477 -0.00989689 0)
(-0.0813024 -0.0182341 0)
(-0.0706178 -0.025009 0)
(-0.0567758 -0.0289883 0)
(-0.041254 -0.0292177 0)
(-0.0259898 -0.0253977 0)
(-0.0130324 -0.0181992 0)
(-0.00407437 -0.00937127 0)
(-5.78433e-05 -0.00164424 0)
(-0.000642507 0.00755058 0)
(-0.0075273 0.0203294 0)
(-0.0188142 0.029744 0)
(-0.0327404 0.035625 0)
(-0.0479118 0.038298 0)
(-0.063313 0.0381045 0)
(-0.0780292 0.0352419 0)
(-0.0911774 0.0297675 0)
(-0.101863 0.0217155 0)
(-0.109189 0.0112618 0)
(-0.112314 -0.00111174 0)
(-0.110553 -0.0144919 0)
(-0.10353 -0.0275091 0)
(-0.0913667 -0.0384054 0)
(-0.0748549 -0.0452896 0)
(-0.0555854 -0.0465733 0)
(-0.0358994 -0.0415528 0)
(-0.0185377 -0.0309604 0)
(-0.00604946 -0.0171874 0)
(-0.000148362 -0.00404521 0)
(-0.000796495 0.0119094 0)
(-0.00905674 0.0305076 0)
(-0.0223921 0.0435424 0)
(-0.0386731 0.0514245 0)
(-0.0562956 0.0548666 0)
(-0.0741735 0.0544313 0)
(-0.0913649 0.0504058 0)
(-0.106968 0.0428548 0)
(-0.120045 0.0317897 0)
(-0.129606 0.0173873 0)
(-0.134641 0.000205699 0)
(-0.134221 -0.0186345 0)
(-0.127652 -0.0373785 0)
(-0.114701 -0.0536612 0)
(-0.0958912 -0.0647714 0)
(-0.0727814 -0.0681966 0)
(-0.0480876 -0.0624633 0)
(-0.0254096 -0.0480717 0)
(-0.00851212 -0.0280205 0)
(-0.000251805 -0.00750427 0)
(-0.000922814 0.0170197 0)
(-0.0103373 0.0423073 0)
(-0.0254114 0.0594021 0)
(-0.0437111 0.0694813 0)
(-0.0634687 0.0737794 0)
(-0.0835672 0.0731588 0)
(-0.103084 0.0680274 0)
(-0.121148 0.0584482 0)
(-0.136826 0.0443672 0)
(-0.149069 0.0258894 0)
(-0.15671 0.00355376 0)
(-0.158537 -0.0214253 0)
(-0.153445 -0.046976 0)
(-0.140694 -0.0701271 0)
(-0.120312 -0.0871991 0)
(-0.093575 -0.0944011 0)
(-0.0634084 -0.088952 0)
(-0.0343508 -0.0705873 0)
(-0.0118187 -0.0427246 0)
(-0.000410267 -0.012343 0)
(-0.00101727 0.0227373 0)
(-0.0113233 0.0554299 0)
(-0.02775 0.0769583 0)
(-0.0476249 0.0894189 0)
(-0.0690635 0.0946911 0)
(-0.0909567 0.094017 0)
(-0.112447 0.0879606 0)
(-0.132749 0.0765775 0)
(-0.150996 0.0597024 0)
(-0.166142 0.0372816 0)
(-0.176918 0.00970911 0)
(-0.181854 -0.0218515 0)
(-0.179403 -0.0551671 0)
(-0.168196 -0.086747 0)
(-0.147522 -0.111874 0)
(-0.118005 -0.125132 0)
(-0.0823963 -0.121734 0)
(-0.0460228 -0.0997622 0)
(-0.0163725 -0.0625008 0)
(-0.000676828 -0.0190893 0)
(-0.00107644 0.0288923 0)
(-0.0119742 0.0695132 0)
(-0.0292891 0.0957442 0)
(-0.0501658 0.110716 0)
(-0.0726414 0.117065 0)
(-0.0956481 0.116494 0)
(-0.118438 0.10977 0)
(-0.14037 0.0969472 0)
(-0.160722 0.0777149 0)
(-0.178548 0.051779 0)
(-0.192589 0.0192553 0)
(-0.201228 -0.0189276 0)
(-0.202543 -0.0606004 0)
(-0.19451 -0.101971 0)
(-0.175467 -0.137383 0)
(-0.14495 -0.15958 0)
(-0.104899 -0.161016 0)
(-0.0608745 -0.136801 0)
(-0.0226084 -0.0888406 0)
(-0.00112638 -0.0285021 0)
(-0.00110448 0.0352999 0)
(-0.012291 0.0841434 0)
(-0.0299745 0.115189 0)
(-0.0511515 0.132678 0)
(-0.0738042 0.140112 0)
(-0.0969343 0.139744 0)
(-0.119944 0.132605 0)
(-0.142398 0.118775 0)
(-0.163808 0.0977904 0)
(-0.183456 0.0690637 0)
(-0.200257 0.0323197 0)
(-0.212642 -0.0119405 0)
(-0.218512 -0.0618984 0)
(-0.215308 -0.11382 0)
(-0.200349 -0.161454 0)
(-0.17168 -0.195796 0)
(-0.129613 -0.205951 0)
(-0.0788641 -0.182399 0)
(-0.0309559 -0.123361 0)
(-0.00187348 -0.0415988 0)
(-0.00112355 0.0417976 0)
(-0.0123681 0.0989017 0)
(-0.0299055 0.134646 0)
(-0.0505873 0.154442 0)
(-0.0723513 0.162774 0)
(-0.0943006 0.162548 0)
(-0.116031 0.155134 0)
(-0.137373 0.140696 0)
(-0.158158 0.118644 0)
(-0.178034 0.0880954 0)
(-0.196284 0.0483215 0)
(-0.211647 -0.000761196 0)
(-0.22216 -0.0579955 0)
(-0.225031 -0.12017 0)
(-0.216732 -0.181063 0)
(-0.193634 -0.230466 0)
(-0.153622 -0.254054 0)
(-0.0990375 -0.236057 0)
(-0.0417318 -0.167456 0)
(-0.00309661 -0.0596685 0)
(-0.00118993 0.0483183 0)
(-0.0124641 0.113455 0)
(-0.0294415 0.153459 0)
(-0.0488022 0.175014 0)
(-0.0684494 0.183745 0)
(-0.0876481 0.183332 0)
(-0.106247 0.17557 0)
(-0.124401 0.160778 0)
(-0.142339 0.138311 0)
(-0.160182 0.107041 0)
(-0.177756 0.0657967 0)
(-0.194388 0.0138338 0)
(-0.208611 -0.0485836 0)
(-0.217864 -0.11928 0)
(-0.218249 -0.192891 0)
(-0.204683 -0.25907 0)
(-0.172172 -0.300824 0)
(-0.11903 -0.295243 0)
(-0.0548962 -0.221664 0)
(-0.00506163 -0.084233 0)
(-0.00142186 0.0550162 0)
(-0.0130983 0.127696 0)
(-0.029313 0.171061 0)
(-0.0465579 0.193334 0)
(-0.0627454 0.20154 0)
(-0.0774341 0.20026 0)
(-0.0908243 0.191793 0)
(-0.103463 0.176684 0)
(-0.116026 0.154313 0)
(-0.129165 0.123401 0)
(-0.143356 0.0824281 0)
(-0.158688 0.0300258 0)
(-0.174538 -0.0345192 0)
(-0.189119 -0.110464 0)
(-0.198888 -0.194155 0)
(-0.198049 -0.276588 0)
(-0.178965 -0.339896 0)
(-0.134712 -0.354706 0)
(-0.0696211 -0.284731 0)
(-0.00811988 -0.116879 0)
(-0.00204898 0.0624694 0)
(-0.0151803 0.141903 0)
(-0.0307061 0.187043 0)
(-0.0450579 0.208309 0)
(-0.0563047 0.214541 0)
(-0.0645651 0.211341 0)
(-0.0705586 0.201536 0)
(-0.0753051 0.18592 0)
(-0.0799492 0.16396 0)
(-0.0856661 0.134332 0)
(-0.0935678 0.0953087 0)
(-0.104553 0.0450586 0)
(-0.119028 -0.0180066 0)
(-0.136424 -0.094671 0)
(-0.154391 -0.183606 0)
(-0.167629 -0.278714 0)
(-0.167026 -0.363959 0)
(-0.140242 -0.406386 0)
(-0.0836983 -0.352507 0)
(-0.0126274 -0.158862 0)
(-0.00351339 0.0720336 0)
(-0.0201787 0.156936 0)
(-0.035215 0.201169 0)
(-0.0456476 0.218763 0)
(-0.0500872 0.220977 0)
(-0.0496961 0.214474 0)
(-0.0459637 0.202515 0)
(-0.04048 0.18607 0)
(-0.0348481 0.164684 0)
(-0.0306893 0.137054 0)
(-0.0296395 0.101393 0)
(-0.0332927 0.0556404 0)
(-0.0430521 -0.00236335 0)
(-0.0597448 -0.0746408 0)
(-0.0828736 -0.162265 0)
(-0.109031 -0.263187 0)
(-0.129738 -0.366288 0)
(-0.128523 -0.440212 0)
(-0.0929274 -0.416981 0)
(-0.0186766 -0.210327 0)
(-0.00657525 0.0862786 0)
(-0.0301656 0.17401 0)
(-0.0442133 0.212822 0)
(-0.0485301 0.222863 0)
(-0.0431439 0.218478 0)
(-0.031054 0.207173 0)
(-0.0148351 0.192318 0)
(0.00328159 0.174823 0)
(0.0212999 0.154202 0)
(0.0372993 0.12918 0)
(0.0493149 0.0980173 0)
(0.0552867 0.0586583 0)
(0.0530525 0.00878181 0)
(0.0405535 -0.0542757 0)
(0.0162369 -0.133364 0)
(-0.0194049 -0.230603 0)
(-0.061233 -0.342302 0)
(-0.0914532 -0.445403 0)
(-0.0905659 -0.465643 0)
(-0.0254302 -0.268886 0)
(-0.0126472 0.110573 0)
(-0.0469353 0.194784 0)
(-0.0556648 0.220396 0)
(-0.0479385 0.217388 0)
(-0.0269133 0.203483 0)
(0.00157058 0.186185 0)
(0.033717 0.168219 0)
(0.0668083 0.149968 0)
(0.0987149 0.13069 0)
(0.127499 0.109072 0)
(0.151156 0.0834854 0)
(0.167473 0.0520715 0)
(0.173869 0.0127213 0)
(0.167504 -0.0371946 0)
(0.145189 -0.101137 0)
(0.104464 -0.184184 0)
(0.0448012 -0.290722 0)
(-0.018776 -0.411978 0)
(-0.0664874 -0.482315 0)
(-0.0298355 -0.328283 0)
(-0.0215601 0.149034 0)
(-0.0659498 0.212882 0)
(-0.0517543 0.213306 0)
(-0.0175571 0.192017 0)
(0.0289807 0.167839 0)
(0.0795428 0.145796 0)
(0.13016 0.126591 0)
(0.178575 0.109483 0)
(0.223259 0.09327 0)
(0.262822 0.0765936 0)
(0.295667 0.0580368 0)
(0.319836 0.0361143 0)
(0.332733 0.00920797 0)
(0.331346 -0.0247553 0)
(0.311584 -0.0686844 0)
(0.269128 -0.128361 0)
(0.197856 -0.213799 0)
(0.104816 -0.33408 0)
(-0.00489701 -0.450445 0)
(-0.0235349 -0.377786 0)
(-0.0272964 0.229943 0)
(-0.0361589 0.223574 0)
(0.0463856 0.176649 0)
(0.125678 0.137663 0)
(0.202564 0.107913 0)
(0.272601 0.0861335 0)
(0.335174 0.0700125 0)
(0.390502 0.0574497 0)
(0.438801 0.0468445 0)
(0.479908 0.0369425 0)
(0.513115 0.0266886 0)
(0.537146 0.0151368 0)
(0.549822 0.00132927 0)
(0.548679 -0.0156926 0)
(0.52953 -0.0379479 0)
(0.487904 -0.0696898 0)
(0.413455 -0.120598 0)
(0.303574 -0.213306 0)
(0.125044 -0.348253 0)
(0.0234551 -0.378654 0)
(0.21462 0.135971 0)
(0.285718 0.0986715 0)
(0.44533 0.05702 0)
(0.54824 0.036543 0)
(0.621235 0.0240231 0)
(0.676861 0.0161334 0)
(0.720486 0.0111694 0)
(0.755318 0.00790768 0)
(0.78331 0.00556723 0)
(0.805407 0.00366202 0)
(0.821786 0.00186224 0)
(0.832043 -5.74289e-05 0)
(0.835234 -0.00234034 0)
(0.829925 -0.0048939 0)
(0.812957 -0.00838976 0)
(0.781823 -0.0134672 0)
(0.724181 -0.0232123 0)
(0.635369 -0.0406689 0)
(0.431302 -0.0913614 0)
(0.270877 -0.153553 0)
)
;

boundaryField
{
    movingWall
    {
        type            calculated;
        value           uniform (1 0 0);
    }
    fixedWalls
    {
        type            calculated;
        value           uniform (0 0 0);
    }
    frontAndBack
    {
        type            empty;
    }
}


// ************************************************************************* //
