/*--------------------------------*- C++ -*----------------------------------*\
  =========                 |
  \\      /  F ield         | OpenFOAM: The Open Source CFD Toolbox
   \\    /   O peration     | Website:  https://openfoam.org
    \\  /    A nd           | Version:  13
     \\/     M anipulation  |
\*---------------------------------------------------------------------------*/
FoamFile
{
    format      ascii;
    class       volScalarField;
    location    "1";
    object      p;
}
// * * * * * * * * * * * * * * * * * * * * * * * * * * * * * * * * * * * * * //

dimensions      [0 2 -2 0 0 0 0];

internalField   nonuniform List<scalar> 
400
(
2.55329e-08
-0.000316902
-0.000490105
-0.00041061
-4.56353e-05
0.000598995
0.00150031
0.0026273
0.00394216
0.00539919
0.00694345
0.00851013
0.0100254
0.0114086
0.0125766
0.0134517
0.0139746
0.0141247
0.0139501
0.0135925
0.000314815
-9.91266e-06
-0.000156019
-5.29406e-05
0.000305735
0.000917467
0.00176639
0.0028276
0.00406789
0.00544503
0.00690702
0.00839221
0.00982972
0.0111428
0.0122535
0.0130908
0.0136028
0.0137729
0.0136224
0.0132552
0.000498372
0.000115026
-4.72629e-05
5.78978e-05
0.00040882
0.00100082
0.00182117
0.0028491
0.00405527
0.0054006
0.00683545
0.00829954
0.00972278
0.0110281
0.0121365
0.0129756
0.0134917
0.0136633
0.013486
0.0130464
0.000425885
-3.47956e-05
-0.000237536
-0.000144592
0.00020106
0.000790654
0.00161183
0.0026462
0.00386723
0.00523829
0.00671111
0.0082253
0.00970836
0.0110784
0.012249
0.0131381
0.0136816
0.0138482
0.013616
0.0130753
3.22537e-05
-0.000502877
-0.000747626
-0.000666219
-0.000316753
0.000288762
0.00113805
0.00221464
0.00349455
0.00494325
0.00651326
0.00814299
0.00975516
0.0112593
0.012556
0.013547
0.014151
0.0143241
0.0140326
0.013382
-0.000723099
-0.00133435
-0.00162062
-0.00154529
-0.00117947
-0.000537968
0.000367151
0.00152153
0.00290401
0.00448247
0.0062102
0.00802446
0.0098411
0.0115577
0.0130563
0.014214
0.0149243
0.0151242
0.014769
0.0139876
-0.00187906
-0.00257567
-0.00290495
-0.00282872
-0.0024329
-0.00173547
-0.000748114
0.000517584
0.00204429
0.00380347
0.00574979
0.00782244
0.00992781
0.0119495
0.0137447
0.0151559
0.0160377
0.0162967
0.0158696
0.0149173
-0.00348635
-0.0042842
-0.00466061
-0.00457627
-0.00413712
-0.00336563
-0.00227293
-0.000866655
0.000841504
0.00282931
0.00505817
0.007462
0.00994968
0.0123876
0.0146016
0.0163864
0.0175376
0.0179095
0.0174005
0.016213
-0.0056152
-0.00653551
-0.00696506
-0.00686482
-0.00636973
-0.00550891
-0.0042928
-0.00272364
-0.000805042
0.00145016
0.00401275
0.00682615
0.00979857
0.0127846
0.0155761
0.0179045
0.0194774
0.0200585
0.0194636
0.0179444
-0.00836256
-0.00943014
-0.00991872
-0.00979192
-0.00922781
-0.00826533
-0.00691416
-0.00516936
-0.00302363
-0.000476015
0.00246043
0.00574685
0.00930397
0.012986
0.0165555
0.0196685
0.0219053
0.0228742
0.0222175
0.020232
-0.0118635
-0.0131027
-0.0136515
-0.0134792
-0.0128291
-0.011754
-0.0102625
-0.008341
-0.00596882
-0.00312709
0.000194808
0.00398813
0.00820665
0.0127296
0.0173143
0.0215445
0.0248306
0.0265247
0.0259134
0.0232997
-0.0163127
-0.0177362
-0.0183312
-0.0180753
-0.0173111
-0.0161089
-0.0144755
-0.0123872
-0.00980951
-0.00670405
-0.00303089
0.00124531
0.00613863
0.0115987
0.0174364
0.0232106
0.0281445
0.0311936
0.0309489
0.0275933
-0.0220065
-0.0235852
-0.024174
-0.0237563
-0.0228248
-0.021467
-0.0196843
-0.0174424
-0.0146961
-0.0113915
-0.00746086
-0.00281641
0.00264336
0.00900214
0.0162353
0.0240168
0.0314628
0.0369945
0.0379187
0.0340139
-0.0294297
-0.0310149
-0.0314555
-0.0307179
-0.0295143
-0.0279366
-0.0259706
-0.0235706
-0.020688
-0.0172666
-0.013225
-0.0084322
-0.00268504
0.00429105
0.0127982
0.0229054
0.0339332
0.0437909
0.0476239
0.0443142
-0.0394275
-0.0405488
-0.0404953
-0.0391269
-0.0374507
-0.0355163
-0.0332697
-0.0306507
-0.0276183
-0.0241342
-0.020131
-0.0154658
-0.00984305
-0.00280457
0.00645148
0.0187821
0.0343668
0.0511394
0.0611646
0.0617258
-0.0536228
-0.0529916
-0.0516371
-0.0490236
-0.0464858
-0.0439179
-0.0411778
-0.0381776
-0.0348889
-0.0313056
-0.0273993
-0.0230536
-0.0179473
-0.0113923
-0.00211276
0.011898
0.0325471
0.0592325
0.0807992
0.0919089
-0.0749568
-0.0690986
-0.0647249
-0.0597768
-0.0557401
-0.0521093
-0.0485676
-0.0449628
-0.0412567
-0.0374586
-0.033564
-0.0294735
-0.0248631
-0.0188384
-0.00967402
0.00584504
0.0318946
0.0714468
0.11148
0.143609
-0.111774
-0.0903666
-0.0793723
-0.0699302
-0.0632355
-0.0579478
-0.0533363
-0.0490426
-0.0449105
-0.0408803
-0.0368946
-0.0327834
-0.0281025
-0.021729
-0.0113881
0.00723497
0.0402711
0.0955664
0.16091
0.230896
-0.175875
-0.110033
-0.087451
-0.0715025
-0.0622279
-0.0562074
-0.0516218
-0.0476246
-0.0438556
-0.0401501
-0.0363649
-0.0322064
-0.0270228
-0.0191911
-0.00587224
0.0186058
0.0624509
0.138334
0.241997
0.401588
-0.409334
-0.148399
-0.0886972
-0.0655039
-0.0536336
-0.0477909
-0.0444172
-0.0417405
-0.0391274
-0.0363259
-0.0331244
-0.0291162
-0.0234496
-0.0143285
0.00200862
0.0333006
0.0912742
0.203348
0.385295
0.750475
)
;

boundaryField
{
    movingWall
    {
        type            zeroGradient;
    }
    fixedWalls
    {
        type            zeroGradient;
    }
    frontAndBack
    {
        type            empty;
    }
}


// ************************************************************************* //
