/*--------------------------------*- C++ -*----------------------------------*\
  =========                 |
  \\      /  F ield         | OpenFOAM: The Open Source CFD Toolbox
   \\    /   O peration     | Website:  https://openfoam.org
    \\  /    A nd           | Version:  13
     \\/     M anipulation  |
\*---------------------------------------------------------------------------*/
FoamFile
{
    format      ascii;
    class       surfaceScalarField;
    location    "1";
    object      phi;
}
// * * * * * * * * * * * * * * * * * * * * * * * * * * * * * * * * * * * * * //

dimensions      [0 3 -1 0 0 0 0];

internalField   nonuniform List<scalar> 
760
(
-1.02343e-05
1.02341e-05
-5.57985e-05
4.55642e-05
-0.000125664
6.98658e-05
-0.00020538
7.97162e-05
-0.000284789
7.94088e-05
-0.000357627
7.2838e-05
-0.000420045
6.24178e-05
-0.000469395
4.93501e-05
-0.000503574
3.41792e-05
-0.000520784
1.72102e-05
-0.000519531
-1.25316e-06
-0.000498774
-2.07568e-05
-0.00045817
-4.06047e-05
-0.000398468
-5.97014e-05
-0.00032212
-7.63487e-05
-0.000234173
-8.79463e-05
-0.000143438
-9.07352e-05
-6.34132e-05
-8.00248e-05
-1.15431e-05
-5.18701e-05
-1.15431e-05
-4.65442e-05
5.67783e-05
-0.000166645
0.000165665
-0.000331785
0.000235006
-0.000514545
0.000262476
-0.000694723
0.000259587
-0.000859052
0.000237167
-0.000998923
0.000202288
-0.00110833
0.000158758
-0.00118267
0.000108516
-0.00121822
5.2767e-05
-0.00121215
-7.323e-06
-0.00116269
-7.02252e-05
-0.00106963
-0.000133659
-0.00093512
-0.000194212
-0.000764762
-0.000246708
-0.000569281
-0.000283426
-0.000366467
-0.000293549
-0.000182447
-0.000264045
-4.99957e-05
-0.000184321
-6.15388e-05
-7.58172e-05
0.000132596
-0.000251471
0.000341319
-0.000482232
0.000465767
-0.000732564
0.000512809
-0.000977071
0.000504094
-0.00119892
0.000459012
-0.00138697
0.000390339
-0.00153339
0.00030518
-0.00163221
0.000207339
-0.00167871
9.92621e-05
-0.0016693
-1.67356e-05
-0.0016018
-0.000137716
-0.00147607
-0.000259396
-0.00129488
-0.000375396
-0.00106549
-0.000476102
-0.000801599
-0.000547317
-0.000525754
-0.000569394
-0.000270981
-0.000518819
-7.98098e-05
-0.000375492
-0.000141349
-9.58363e-05
0.000228432
-0.000311824
0.000557308
-0.000590392
0.000744335
-0.000889029
0.000811445
-0.00117867
0.000793737
-0.00144046
0.000720803
-0.00166203
0.000611903
-0.00183465
0.000477803
-0.00195164
0.000324331
-0.00200761
0.000155229
-0.00199831
-2.60378e-05
-0.0019209
-0.000215124
-0.00177466
-0.000405635
-0.00156215
-0.000587908
-0.00129105
-0.000747195
-0.000976765
-0.000861605
-0.000645338
-0.000900821
-0.000335841
-0.000828315
-0.000100238
-0.000611095
-0.000241587
-0.000111147
0.000339579
-0.000359987
0.000806147
-0.000678539
0.00106289
-0.00101778
0.00115069
-0.00134535
0.0011213
-0.00164088
0.00101634
-0.00189133
0.000862352
-0.00208758
0.000674049
-0.00222251
0.000459262
-0.00229013
0.000222848
-0.00228532
-3.08463e-05
-0.00220406
-0.00029638
-0.00204429
-0.000565409
-0.00180734
-0.000824857
-0.00150041
-0.00105413
-0.00113996
-0.00122205
-0.00075575
-0.00128503
-0.000393984
-0.00119008
-0.000117399
-0.000887681
-0.000358986
-0.00012593
0.000465508
-0.000407345
0.00108756
-0.000766142
0.00142168
-0.00114654
0.00153109
-0.00151275
0.00148751
-0.00184304
0.00134663
-0.00212397
0.00114328
-0.0023463
0.00089638
-0.00250268
0.00061564
-0.00258648
0.00030665
-0.00259143
-2.58954e-05
-0.00251167
-0.000376143
-0.00234281
-0.000734264
-0.00208377
-0.0010839
-0.00174008
-0.00139782
-0.00132871
-0.00163342
-0.000883758
-0.00172999
-0.000460824
-0.00161302
-0.000136653
-0.00121185
-0.000495638
-0.000143165
0.000608674
-0.000462175
0.00140657
-0.000867143
0.00182665
-0.00129454
0.00195849
-0.00170477
0.00189774
-0.00207481
0.00171666
-0.00239112
0.00145959
-0.0026447
0.00114996
-0.00282822
0.000799159
-0.00293448
0.000412915
-0.00295586
-4.51821e-06
-0.00288387
-0.00044813
-0.00271066
-0.000907479
-0.00243098
-0.00136358
-0.00204685
-0.00178195
-0.00157449
-0.00210578
-0.00105279
-0.00225169
-0.000549921
-0.00211588
-0.000162471
-0.0015993
-0.00065811
-0.000164973
0.000773647
-0.000530362
0.00177196
-0.000991221
0.00228751
-0.00147459
0.00244186
-0.00193658
0.00235974
-0.00235309
0.00213317
-0.002711
0.0018175
-0.00300215
0.00144111
-0.00321978
0.00101678
-0.00335647
0.000549604
-0.00340295
4.19692e-05
-0.00334786
-0.000503217
-0.00317815
-0.00107719
-0.00288202
-0.00165971
-0.00245485
-0.00220912
-0.00190924
-0.00265139
-0.0012882
-0.00287272
-0.000676429
-0.00272765
-0.00019979
-0.00207594
-0.0008579
-0.000193297
0.000966944
-0.000617003
0.00219567
-0.00114625
0.00281676
-0.00169632
0.00299193
-0.00221859
0.00288201
-0.00268841
0.00260299
-0.00309398
0.00222308
-0.003429
0.00177613
-0.00368818
0.00127596
-0.00386467
0.000726091
-0.0039481
0.000125399
-0.00392357
-0.000527741
-0.00377142
-0.00122935
-0.00346996
-0.00196116
-0.00300284
-0.00267625
-0.00237325
-0.00328098
-0.00162486
-0.00362111
-0.000862577
-0.00348993
-0.000256248
-0.00268227
-0.00111415
-0.000230647
0.00119759
-0.000728068
0.00269309
-0.00134061
0.0034293
-0.00196889
0.0036202
-0.0025594
0.00347253
-0.00308797
0.00313155
-0.00354558
0.00268069
-0.00392928
0.00215982
-0.00423684
0.00158353
-0.0044634
0.000952647
-0.00459863
0.000260634
-0.00462443
-0.00050194
-0.00451325
-0.00134054
-0.0042296
-0.00224481
-0.00373789
-0.00316796
-0.00302139
-0.00399748
-0.00211503
-0.00452747
-0.00114471
-0.00446026
-0.000345442
-0.00348153
-0.00145959
-0.000280987
0.00147858
-0.000872039
0.00328414
-0.00158506
0.00414232
-0.00230268
0.00433782
-0.00296704
0.00413688
-0.00355628
0.00372079
-0.00406631
0.00319072
-0.00449968
0.0025932
-0.00485943
0.00194327
-0.00514497
0.00123819
-0.00534832
0.000463979
-0.00544991
-0.000400346
-0.00541436
-0.00137609
-0.00518883
-0.00247035
-0.00470888
-0.00364791
-0.0039212
-0.00478516
-0.00283221
-0.00561646
-0.00158016
-0.00571232
-0.000491306
-0.00457038
-0.0019509
-0.000350996
0.00182957
-0.00106168
0.00399482
-0.00189397
0.00497462
-0.00270932
0.00515317
-0.00344746
0.00487502
-0.00409201
0.00436534
-0.00464671
0.00374543
-0.00512239
0.00306887
-0.00553013
0.00235102
-0.00587684
0.0015849
-0.0061605
0.000747639
-0.00636397
-0.000196879
-0.00644689
-0.00129316
-0.00633818
-0.00257906
-0.00593554
-0.00405055
-0.00512723
-0.00559347
-0.00385717
-0.00688651
-0.00224659
-0.00732289
-0.00073223
-0.00608474
-0.00268313
-0.000452037
0.00228161
-0.0013157
0.00485849
-0.00228462
0.00594353
-0.00319762
0.00606617
-0.00399693
0.00567434
-0.00467663
0.00504504
-0.00525229
0.00432108
-0.00574615
0.00356274
-0.00618044
0.00278531
-0.00657307
0.00197752
-0.00693267
0.00110724
-0.00725063
0.00012108
-0.00748885
-0.00105495
-0.0075636
-0.0025043
-0.00733262
-0.00428153
-0.00660628
-0.00631981
-0.00522047
-0.00827232
-0.00321583
-0.00932753
-0.00111989
-0.00818069
-0.00380301
-0.000603128
0.00288474
-0.00165906
0.00591442
-0.00277082
0.0070553
-0.00375914
0.00705448
-0.00457937
0.00649457
-0.00524434
0.00571002
-0.00578678
0.00486352
-0.00624381
0.00401977
-0.00665124
0.00319273
-0.00704055
0.00236683
-0.007435
0.0015017
-0.00784163
0.000527711
-0.00823608
-0.000660498
-0.00853831
-0.00220207
-0.00858126
-0.00423858
-0.00809766
-0.00680341
-0.00677621
-0.00959378
-0.00447598
-0.0116278
-0.00170215
-0.0109545
-0.00550516
-0.000835523
0.00372026
-0.00211717
0.00719607
-0.00333987
0.00827799
-0.00432679
0.0080414
-0.00506883
0.00723661
-0.00561178
0.00625297
-0.0060131
0.00526484
-0.00632806
0.00433473
-0.00660658
0.00347125
-0.00689294
0.0026532
-0.00722505
0.0018338
-0.00762981
0.000932468
-0.00810837
-0.000181933
-0.00861272
-0.00169773
-0.00899263
-0.00385867
-0.00894739
-0.00684865
-0.00802333
-0.0105178
-0.00578831
-0.0138628
-0.00247254
-0.0142703
-0.00797771
-0.00119611
0.00491637
-0.00269038
0.00869033
-0.00388647
0.00947409
-0.00467239
0.00882732
-0.00512097
0.00768518
-0.00533528
0.00646728
-0.00540713
0.00533669
-0.00541075
0.00433835
-0.0054057
0.0034662
-0.00544172
0.00268922
-0.00556329
0.00195537
-0.00581212
0.0011813
-0.00622221
0.000228157
-0.00680331
-0.00111663
-0.00748863
-0.00317335
-0.0080457
-0.00629159
-0.00797464
-0.0105889
-0.00651279
-0.0153246
-0.00326454
-0.0175185
-0.0112422
-0.0017419
0.00665828
-0.00325367
0.0102021
-0.00401986
0.0102403
-0.00415968
0.00896713
-0.00391152
0.00743703
-0.00346285
0.00601862
-0.00293933
0.00481317
-0.00242223
0.00382125
-0.00196484
0.00300881
-0.00160536
0.00232974
-0.0013778
0.00172781
-0.00132234
0.00112584
-0.00149749
0.000403304
-0.00197456
-0.00063956
-0.00282493
-0.00232298
-0.00401764
-0.00509888
-0.00521981
-0.00938674
-0.00549548
-0.015049
-0.00356952
-0.0194445
-0.0148118
-0.00238458
0.00904285
-0.00316914
0.0109867
-0.00253121
0.00960235
-0.00121697
0.00765288
0.000300983
0.00591908
0.00178811
0.00453149
0.00313699
0.00346428
0.00430605
0.0026522
0.00528398
0.00203087
0.00607028
0.00154345
0.00666181
0.00113628
0.00703911
0.000748546
0.00714678
0.000295637
0.00687206
-0.000364844
0.00601991
-0.00147082
0.00434594
-0.00342491
0.00175902
-0.00679981
-0.00113983
-0.0121501
-0.00238408
-0.0182002
-0.0171958
-0.0018441
0.010887
0.000574405
0.00856817
0.00432141
0.00585535
0.00782958
0.0041447
0.0108355
0.00291318
0.0133099
0.00205705
0.0153045
0.00146975
0.0168941
0.00106258
0.0181498
0.000775135
0.019128
0.000565205
0.0198647
0.000399586
0.0203662
0.000247067
0.0205896
7.22732e-05
0.0204242
-0.000199477
0.019623
-0.000669602
0.017744
-0.00154594
0.0141802
-0.00323599
0.00846432
-0.00643423
0.00200532
-0.0117412
-0.0151905
0.010887
0.0194551
0.0253105
0.0294552
0.0323684
0.0344254
0.0358952
0.0369577
0.0377329
0.0382981
0.0386977
0.0389447
0.039017
0.0388175
0.0381479
0.036602
0.033366
0.0269318
0.0151905
)
;

boundaryField
{
    movingWall
    {
        type            calculated;
        value           uniform 0;
    }
    fixedWalls
    {
        type            calculated;
        value           uniform 0;
    }
    frontAndBack
    {
        type            empty;
    }
}


// ************************************************************************* //
