/*--------------------------------*- C++ -*----------------------------------*\
  =========                 |
  \\      /  F ield         | OpenFOAM: The Open Source CFD Toolbox
   \\    /   O peration     | Website:  https://openfoam.org
    \\  /    A nd           | Version:  13
     \\/     M anipulation  |
\*---------------------------------------------------------------------------*/
FoamFile
{
    format      ascii;
    class       surfaceScalarField;
    location    "1";
    object      phi_0;
}
// * * * * * * * * * * * * * * * * * * * * * * * * * * * * * * * * * * * * * //

dimensions      [0 3 -1 0 0 0 0];

internalField   nonuniform List<scalar> 
760
(
-1.03597e-05
1.03594e-05
-5.60906e-05
4.57309e-05
-0.000126037
6.99469e-05
-0.00020572
7.96826e-05
-0.000285007
7.92867e-05
-0.000357673
7.26668e-05
-0.000419904
6.22302e-05
-0.000469074
4.91703e-05
-0.0005031
3.40265e-05
-0.000520204
1.71034e-05
-0.000518909
-1.29515e-06
-0.00049819
-2.07183e-05
-0.000457712
-4.0478e-05
-0.000398217
-5.94951e-05
-0.00032212
-7.60971e-05
-0.000234407
-8.77132e-05
-0.000143803
-9.06034e-05
-6.37459e-05
-8.00574e-05
-1.16999e-05
-5.2046e-05
-1.16999e-05
-4.67142e-05
5.70736e-05
-0.000166971
0.000165988
-0.000332055
0.000235031
-0.000514512
0.00026214
-0.000694208
0.000258983
-0.000857969
0.000236428
-0.000997266
0.000201528
-0.00110616
0.000158062
-0.00118008
0.000107953
-0.00121538
5.24018e-05
-0.00120925
-7.43268e-06
-0.00115993
-7.00325e-05
-0.00106726
-0.000133146
-0.000933344
-0.000193414
-0.000763703
-0.000245738
-0.000568927
-0.000282489
-0.000366628
-0.000292903
-0.000182791
-0.000263894
-5.02024e-05
-0.000184635
-6.19023e-05
-7.59004e-05
0.000132974
-0.000251491
0.000341579
-0.000481872
0.000465411
-0.000731508
0.000511776
-0.000975109
0.000502583
-0.00119597
0.000457288
-0.00138307
0.000388628
-0.00152866
0.000303657
-0.00162685
0.000206143
-0.00167297
9.8518e-05
-0.00166349
-1.69152e-05
-0.00159628
-0.000137244
-0.00147118
-0.000258243
-0.00129096
-0.000373634
-0.00106274
-0.000473952
-0.000800061
-0.000545172
-0.000525209
-0.000567754
-0.000271005
-0.000518099
-7.9937e-05
-0.000375703
-0.000141839
-9.57961e-05
0.00022877
-0.000311444
0.000557227
-0.000589266
0.000743233
-0.000886799
0.000809309
-0.00117512
0.000790909
-0.00143554
0.000717707
-0.00165582
0.000608899
-0.00182733
0.000475169
-0.00194348
0.000322291
-0.00199894
0.000153983
-0.00198955
-2.63103e-05
-0.00191251
-0.000214283
-0.00176712
-0.000403632
-0.0015559
-0.000584849
-0.00128643
-0.000743425
-0.000973859
-0.000857742
-0.000643943
-0.000897671
-0.000335461
-0.000826581
-0.000100261
-0.000610903
-0.0002421
-0.000111002
0.000339772
-0.000359261
0.000805486
-0.000676748
0.00106072
-0.00101453
0.00114709
-0.00134043
0.0011168
-0.00163425
0.00101153
-0.0018831
0.000857749
-0.00207797
0.000670036
-0.00221184
0.000456158
-0.00227879
0.00022094
-0.00227381
-3.12946e-05
-0.00219294
-0.000295154
-0.00203415
-0.000562416
-0.00179878
-0.000820227
-0.00149387
-0.00104833
-0.00113565
-0.00121596
-0.000753492
-0.00127983
-0.000393211
-0.00118686
-0.000117331
-0.000886782
-0.000359431
-0.000125716
0.000465488
-0.000406371
0.00108614
-0.000763851
0.0014182
-0.00114251
0.00152575
-0.00150674
0.00148104
-0.00183502
0.00133981
-0.00211405
0.00113678
-0.00233472
0.000890701
-0.00248976
0.000611203
-0.00257267
0.000303845
-0.00257726
-2.66996e-05
-0.0024978
-0.000374619
-0.00232997
-0.000730241
-0.00207271
-0.00107749
-0.00173143
-0.0013896
-0.00132283
-0.00162456
-0.000880541
-0.00172213
-0.000459631
-0.00160777
-0.000136502
-0.00120991
-0.000495933
-0.000142909
0.000608396
-0.00046103
0.00140426
-0.000864479
0.00182165
-0.00128989
0.00195116
-0.00169786
0.00188902
-0.00206559
0.00170754
-0.00237969
0.00145087
-0.00263127
0.00114228
-0.00281311
0.000793041
-0.00291813
0.000408871
-0.00293883
-5.9971e-06
-0.00286692
-0.000446536
-0.00269464
-0.000902513
-0.00241686
-0.00135527
-0.00203552
-0.00177094
-0.00156655
-0.00209353
-0.00104827
-0.00224041
-0.000548151
-0.0021079
-0.000162206
-0.00159586
-0.000658139
-0.00016469
0.000773086
-0.000529087
0.00176866
-0.000988254
0.00228082
-0.0014694
0.0024323
-0.00192886
0.00234848
-0.00234274
0.00212142
-0.00269808
0.00180621
-0.00298682
0.00143102
-0.00320231
0.00100852
-0.00333726
0.000543823
-0.0033826
3.93481e-05
-0.00332715
-0.000501993
-0.00315809
-0.00107157
-0.00286383
-0.00164953
-0.00243978
-0.002195
-0.00189828
-0.00263503
-0.00128168
-0.002857
-0.000673708
-0.00271587
-0.000199313
-0.00207025
-0.000857452
-0.000192994
0.000966081
-0.000615621
0.00219129
-0.00114301
0.00280821
-0.00169063
0.00297991
-0.00221009
0.00286795
-0.00267694
0.00258827
-0.00307954
0.00220881
-0.00341165
0.00176313
-0.00366811
0.00126499
-0.00384221
0.000717916
-0.00392376
0.000120905
-0.00389816
-0.000527593
-0.00374607
-0.00122366
-0.00344618
-0.00194942
-0.00298236
-0.00265882
-0.00235767
-0.00325972
-0.00161508
-0.00359958
-0.000858197
-0.00347276
-0.000255352
-0.0026731
-0.0011128
-0.000230332
0.00119641
-0.000726599
0.00268755
-0.00133714
0.00341875
-0.00196275
0.00360553
-0.00255018
0.00345538
-0.00307543
0.00311352
-0.00352962
0.002663
-0.00390987
0.00214338
-0.00421403
0.00156915
-0.00443735
0.000941241
-0.00456974
0.00025329
-0.0045934
-0.000503931
-0.00448126
-0.0013358
-0.00419842
-0.00223225
-0.00370983
-0.00314741
-0.00299895
-0.00397061
-0.0021001
-0.00449843
-0.0011375
-0.00443536
-0.000343752
-0.00346684
-0.00145656
-0.000280674
0.00147709
-0.000870528
0.00327741
-0.00158145
0.00412967
-0.00229624
0.00432032
-0.00295728
0.00411642
-0.00354291
0.00369915
-0.00404911
0.0031692
-0.00447848
0.00257275
-0.0048341
0.00192477
-0.00511548
0.00122262
-0.0053148
0.000452607
-0.00541285
-0.000405884
-0.00537482
-0.00137383
-0.00514873
-0.00245835
-0.00467112
-0.00362503
-0.0038894
-0.00475233
-0.00280976
-0.00557806
-0.00156851
-0.00567662
-0.000488249
-0.0045471
-0.00194481
-0.000350716
0.0018278
-0.00106023
0.00398692
-0.00189042
0.00495986
-0.0027029
0.0051328
-0.00343765
0.00485117
-0.00407842
0.00433992
-0.00462905
0.00371982
-0.00510036
0.00304405
-0.00550343
0.00232784
-0.00584517
0.00156437
-0.00612368
0.00073111
-0.00632209
-0.000207472
-0.00640069
-0.00129523
-0.00628948
-0.00256956
-0.00588762
-0.00402688
-0.00508482
-0.00555513
-0.00382547
-0.00683741
-0.00222897
-0.00727312
-0.000727137
-0.00604893
-0.00267194
-0.000451856
0.00227966
-0.00131454
0.0048496
-0.00228158
0.00592689
-0.00319195
0.00604317
-0.00398808
0.00564731
-0.00466421
0.00501605
-0.00523595
0.00429157
-0.00572556
0.00353366
-0.00615518
0.00275746
-0.00654264
0.00195183
-0.00689655
0.00108502
-0.00720848
0.00010445
-0.00744086
-0.00106284
-0.00751113
-0.00249929
-0.0072788
-0.00425922
-0.00655632
-0.00627761
-0.00518093
-0.0082128
-0.0031922
-0.00926185
-0.00111236
-0.00812876
-0.0037843
-0.000603178
0.00288284
-0.00165861
0.00590503
-0.00276913
0.00703742
-0.00375556
0.0070296
-0.00457343
0.00646518
-0.00523571
0.00567833
-0.00577519
0.00483104
-0.00622898
0.00398745
-0.00663279
0.00316128
-0.00701797
0.00233701
-0.00740762
0.00147468
-0.00780874
0.000505569
-0.0081973
-0.000674283
-0.0084941
-0.00220249
-0.00853369
-0.00421962
-0.00805095
-0.00676035
-0.00673653
-0.00952722
-0.00444993
-0.0115485
-0.00169275
-0.0108859
-0.00547705
-0.000836011
0.00371885
-0.00211812
0.00718715
-0.00334089
0.00826018
-0.00432748
0.00801619
-0.00506891
0.00720661
-0.00561109
0.00622051
-0.00601155
0.0052315
-0.00632559
0.00430148
-0.00660303
0.00343872
-0.00688802
0.00262199
-0.00721821
0.00180486
-0.00762024
0.000907608
-0.0080953
-0.000199226
-0.00859536
-0.00170243
-0.00897099
-0.00384399
-0.00892266
-0.00680867
-0.00799848
-0.0104514
-0.00576846
-0.0137785
-0.00246352
-0.0141909
-0.00794057
-0.00119723
0.00491608
-0.00269344
0.00868335
-0.0038917
0.00945844
-0.00467983
0.00880432
-0.00513065
0.00765744
-0.00534729
0.00643715
-0.0054216
0.00530581
-0.00542785
0.00430773
-0.00542557
0.00343644
-0.00546438
0.0026608
-0.00558851
0.001929
-0.00583936
0.00115845
-0.00625006
0.000211478
-0.00683018
-0.00112231
-0.00751184
-0.00316234
-0.00806205
-0.00625846
-0.00798156
-0.0105319
-0.00651087
-0.0152492
-0.00326018
-0.0174416
-0.0112007
-0.00174349
0.00665957
-0.00325867
0.0101985
-0.00402941
0.0102292
-0.0041745
0.00894941
-0.00393208
0.00741502
-0.00348949
0.00599456
-0.0029723
0.00478862
-0.00246179
0.00379722
-0.00201118
0.00298583
-0.0016586
0.00230822
-0.00143784
0.00170824
-0.00138867
0.00110928
-0.0015689
0.000391707
-0.00204827
-0.000642945
-0.0028964
-0.00231421
-0.00408018
-0.00507468
-0.00526569
-0.00934638
-0.00551935
-0.0149955
-0.00357464
-0.0193863
-0.0147754
-0.0023856
0.00904518
-0.00317356
0.0109865
-0.00254134
0.00959696
-0.00123451
0.00764258
0.000274887
0.00590562
0.00175291
0.00451654
0.00309239
0.00344914
0.00425196
0.00263764
0.00522048
0.00201732
0.00599754
0.00153116
0.00658023
0.00112555
0.00694949
0.000740014
0.00705076
0.000290439
0.00677275
-0.00036493
0.00592232
-0.00146378
0.00425742
-0.00340978
0.00168889
-0.00677785
-0.0011836
-0.012123
-0.0023998
-0.0181701
-0.0171752
-0.00184332
0.0108885
0.000574051
0.00856911
0.00431697
0.00585404
0.00781823
0.00414133
0.0108154
0.00290845
0.0132802
0.00205173
0.0152649
0.00146444
0.0168449
0.00105763
0.0180915
0.000770711
0.0190613
0.000561401
0.0197903
0.000396512
0.0202854
0.00024495
0.0205043
7.15214e-05
0.0203376
-0.000198202
0.0195395
-0.000665721
0.0176693
-0.00153956
0.01412
-0.00322856
0.00842436
-0.00642738
0.00198961
-0.0117353
-0.0151856
0.0108885
0.0194576
0.0253117
0.029453
0.0323614
0.0344132
0.0358776
0.0369352
0.0377059
0.0382673
0.0386639
0.0389088
0.0389803
0.0387821
0.0381164
0.0365768
0.0333483
0.0269209
0.0151856
)
;

boundaryField
{
    movingWall
    {
        type            calculated;
        value           uniform 0;
    }
    fixedWalls
    {
        type            calculated;
        value           uniform 0;
    }
    frontAndBack
    {
        type            empty;
    }
}


// ************************************************************************* //
