/*--------------------------------*- C++ -*----------------------------------*\
  =========                 |
  \\      /  F ield         | OpenFOAM: The Open Source CFD Toolbox
   \\    /   O peration     | Website:  https://openfoam.org
    \\  /    A nd           | Version:  13
     \\/     M anipulation  |
\*---------------------------------------------------------------------------*/
FoamFile
{
    format      ascii;
    class       volVectorField;
    location    "1";
    object      U;
}
// * * * * * * * * * * * * * * * * * * * * * * * * * * * * * * * * * * * * * //

dimensions      [0 1 -1 0 0 0 0];

internalField   nonuniform List<vector> 
400
(
(3.81476e-05 -3.79068e-05 0)
(-0.00051708 0.000122125 0)
(-0.0017417 0.000238955 0)
(-0.0032933 0.000286218 0)
(-0.00492072 0.000289288 0)
(-0.00646539 0.000268039 0)
(-0.00783223 0.0002332 0)
(-0.00896038 0.000189045 0)
(-0.00980421 0.000136764 0)
(-0.0103252 7.66324e-05 0)
(-0.0104901 9.14617e-06 0)
(-0.0102728 -6.44951e-05 0)
(-0.00965811 -0.000141642 0)
(-0.00864805 -0.000217856 0)
(-0.00727141 -0.000285784 0)
(-0.0055986 -0.000333589 0)
(-0.00376332 -0.000343113 0)
(-0.00198629 -0.000289878 0)
(-0.000584844 -0.000151027 0)
(4.23e-05 3.61703e-05 0)
(-0.000123034 0.00051521 0)
(-0.00184942 0.00180817 0)
(-0.00483675 0.00268417 0)
(-0.00843666 0.003042 0)
(-0.0121448 0.00302537 0)
(-0.01564 0.00277291 0)
(-0.0187154 0.00237323 0)
(-0.0212325 0.00187199 0)
(-0.0230891 0.00129096 0)
(-0.0242031 0.000642881 0)
(-0.0245086 -5.96383e-05 0)
(-0.0239577 -0.000799056 0)
(-0.0225282 -0.00154854 0)
(-0.0202352 -0.00226699 0)
(-0.0171497 -0.00289124 0)
(-0.0134262 -0.00332563 0)
(-0.00934044 -0.00343373 0)
(-0.0053243 -0.00304884 0)
(-0.00200318 -0.00203937 0)
(-0.000123488 -0.0005704 0)
(-0.000256042 0.0017865 0)
(-0.00291541 0.004845 0)
(-0.00715709 0.00673744 0)
(-0.0121262 0.00747641 0)
(-0.0171755 0.00737635 0)
(-0.0219042 0.00673079 0)
(-0.026047 0.00573363 0)
(-0.0294238 0.00449148 0)
(-0.0319011 0.00306026 0)
(-0.0333737 0.00147554 0)
(-0.0337579 -0.000228685 0)
(-0.0329944 -0.00200831 0)
(-0.0310563 -0.00379931 0)
(-0.0279644 -0.00550597 0)
(-0.0238107 -0.00698429 0)
(-0.0187938 -0.00802112 0)
(-0.0132643 -0.00832042 0)
(-0.00776458 -0.00752851 0)
(-0.00309966 -0.00535535 0)
(-0.000251774 -0.00191835 0)
(-0.000337932 0.00353392 0)
(-0.00366151 0.00882042 0)
(-0.0088228 0.0118994 0)
(-0.0147809 0.0130378 0)
(-0.0207782 0.0127874 0)
(-0.0263656 0.0116294 0)
(-0.0312482 0.00988018 0)
(-0.0352259 0.00771702 0)
(-0.0381502 0.0052359 0)
(-0.0399022 0.00249903 0)
(-0.0403854 -0.00043523 0)
(-0.0395267 -0.00349312 0)
(-0.0372863 -0.00656802 0)
(-0.0336758 -0.00950053 0)
(-0.0287871 -0.0120504 0)
(-0.0228371 -0.0138632 0)
(-0.0162249 -0.0144497 0)
(-0.00958231 -0.0132238 0)
(-0.0038776 -0.00967076 0)
(-0.000324913 -0.00374632 0)
(-0.000394152 0.00561407 0)
(-0.00424237 0.0134853 0)
(-0.010168 0.0178868 0)
(-0.0169573 0.0194314 0)
(-0.023751 0.0189725 0)
(-0.03006 0.0172125 0)
(-0.0355712 0.0146055 0)
(-0.0400758 0.0114045 0)
(-0.0434181 0.00774671 0)
(-0.0454694 0.00371926 0)
(-0.0461188 -0.00059789 0)
(-0.0452726 -0.00510433 0)
(-0.0428647 -0.00965169 0)
(-0.0388791 -0.0140127 0)
(-0.033387 -0.0178378 0)
(-0.0266066 -0.0206052 0)
(-0.0189796 -0.021591 0)
(-0.0112408 -0.0199194 0)
(-0.00454918 -0.0147837 0)
(-0.000375419 -0.00592362 0)
(-0.000446216 0.00797958 0)
(-0.00480703 0.0187746 0)
(-0.011498 0.0246432 0)
(-0.0191278 0.0266101 0)
(-0.0267304 0.0258933 0)
(-0.033777 0.0234544 0)
(-0.0399413 0.0199023 0)
(-0.0450121 0.0155715 0)
(-0.0488314 0.0106382 0)
(-0.0512631 0.00520912 0)
(-0.0521788 -0.000622341 0)
(-0.0514551 -0.00673822 0)
(-0.0489831 -0.0129546 0)
(-0.0446964 -0.0189756 0)
(-0.0386201 -0.0243269 0)
(-0.0309531 -0.0282826 0)
(-0.0221777 -0.0298218 0)
(-0.0131599 -0.0276989 0)
(-0.00531038 -0.0207377 0)
(-0.000427812 -0.00844371 0)
(-0.000508394 0.0106544 0)
(-0.0054637 0.0247452 0)
(-0.0130352 0.0322422 0)
(-0.0216266 0.0346513 0)
(-0.0301508 0.033625 0)
(-0.0380376 0.0304287 0)
(-0.0449524 0.0258476 0)
(-0.0506883 0.0203034 0)
(-0.0550924 0.0140081 0)
(-0.0580243 0.00707808 0)
(-0.0593381 -0.000394162 0)
(-0.0588707 -0.00828731 0)
(-0.0564516 -0.0163986 0)
(-0.0519346 -0.0243683 0)
(-0.0452603 -0.0315819 0)
(-0.0365728 -0.0370596 0)
(-0.0263805 -0.0393923 0)
(-0.0157129 -0.0368429 0)
(-0.00633046 -0.0277573 0)
(-0.000499521 -0.0113945 0)
(-0.000590527 0.0137113 0)
(-0.00628998 0.0315404 0)
(-0.0149368 0.0408471 0)
(-0.0246824 0.0437112 0)
(-0.0342957 0.0423076 0)
(-0.0431654 0.0382613 0)
(-0.050957 0.0325604 0)
(-0.0574807 0.025721 0)
(-0.0626001 0.0179862 0)
(-0.0661807 0.00946836 0)
(-0.0680602 0.000238188 0)
(-0.0680321 -0.00960674 0)
(-0.0658451 -0.0198719 0)
(-0.0612319 -0.0301521 0)
(-0.0539912 -0.0396839 0)
(-0.0441454 -0.0471734 0)
(-0.0321831 -0.0506925 0)
(-0.0193162 -0.0478217 0)
(-0.00779939 -0.0362463 0)
(-0.000608315 -0.0149502 0)
(-0.000702349 0.0172603 0)
(-0.007356 0.0393682 0)
(-0.0173366 0.0506833 0)
(-0.0284756 0.0539922 0)
(-0.0393698 0.0521104 0)
(-0.0493721 0.0470946 0)
(-0.0581648 0.04017 0)
(-0.0655948 0.031956 0)
(-0.0715626 0.0227205 0)
(-0.0759574 0.0125544 0)
(-0.0786142 0.00147821 0)
(-0.0792843 -0.0104771 0)
(-0.0776178 -0.0231706 0)
(-0.0731801 -0.0361955 0)
(-0.0655424 -0.0486525 0)
(-0.0544885 -0.0588736 0)
(-0.0403745 -0.064233 0)
(-0.0245676 -0.0613243 0)
(-0.0100081 -0.0468395 0)
(-0.000784251 -0.0193994 0)
(-0.000858341 0.021453 0)
(-0.00874973 0.0484987 0)
(-0.0203849 0.0620257 0)
(-0.0331895 0.065721 0)
(-0.0455561 0.0632047 0)
(-0.0568186 0.0570594 0)
(-0.066703 0.0487889 0)
(-0.0751238 0.0391274 0)
(-0.0820491 0.0283605 0)
(-0.0874223 0.0165373 0)
(-0.0911037 0.00359074 0)
(-0.0928198 -0.01057 0)
(-0.0921166 -0.0259348 0)
(-0.0883462 -0.0421819 0)
(-0.0807404 -0.0583386 0)
(-0.0686563 -0.0723326 0)
(-0.0520886 -0.0806184 0)
(-0.0324115 -0.0783244 0)
(-0.0134626 -0.0605263 0)
(-0.00108885 -0.0252266 0)
(-0.0010845 0.0265016 0)
(-0.0106053 0.0592793 0)
(-0.0242868 0.0751963 0)
(-0.0390473 0.0791313 0)
(-0.0530467 0.0757369 0)
(-0.0656343 0.0682417 0)
(-0.076623 0.0584781 0)
(-0.0860376 0.0473071 0)
(-0.0939573 0.0350269 0)
(-0.100425 0.0216227 0)
(-0.105373 0.00689913 0)
(-0.108547 -0.00942732 0)
(-0.109415 -0.0275892 0)
(-0.10709 -0.0475001 0)
(-0.100344 -0.0682699 0)
(-0.0878437 -0.0874834 0)
(-0.0688214 -0.100456 0)
(-0.0442662 -0.100144 0)
(-0.0190284 -0.0788521 0)
(-0.00164763 -0.0332727 0)
(-0.00142995 0.0327188 0)
(-0.0131402 0.0721619 0)
(-0.0293353 0.0905612 0)
(-0.0463268 0.0944342 0)
(-0.0620279 0.0897833 0)
(-0.0758711 0.0806304 0)
(-0.0878188 0.0691888 0)
(-0.0980626 0.0564585 0)
(-0.106847 0.0427452 0)
(-0.114373 0.0279544 0)
(-0.120714 0.0117242 0)
(-0.125712 -0.00649903 0)
(-0.128833 -0.0273332 0)
(-0.128988 -0.0511564 0)
(-0.124412 -0.0774634 0)
(-0.112788 -0.103751 0)
(-0.0920059 -0.124104 0)
(-0.0618851 -0.12839 0)
(-0.0280341 -0.104138 0)
(-0.00270139 -0.0449922 0)
(-0.00198873 0.0405898 0)
(-0.0167067 0.087739 0)
(-0.0359288 0.108506 0)
(-0.0553166 0.111752 0)
(-0.0725658 0.105262 0)
(-0.0873142 0.0940166 0)
(-0.0997644 0.0806533 0)
(-0.110344 0.066315 0)
(-0.119522 0.0513117 0)
(-0.12772 0.0354616 0)
(-0.135232 0.0182149 0)
(-0.142106 -0.00131567 0)
(-0.147944 -0.0242852 0)
(-0.151602 -0.0518311 0)
(-0.150846 -0.0843114 0)
(-0.142205 -0.119702 0)
(-0.1216 -0.151128 0)
(-0.0864653 -0.164499 0)
(-0.04211 -0.139488 0)
(-0.00467446 -0.0627735 0)
(-0.00293948 0.0508923 0)
(-0.0218544 0.106755 0)
(-0.0445207 0.129332 0)
(-0.0661103 0.130948 0)
(-0.0842321 0.121737 0)
(-0.0989506 0.107789 0)
(-0.110841 0.092175 0)
(-0.12065 0.0761623 0)
(-0.129125 0.0600543 0)
(-0.136954 0.0435841 0)
(-0.144711 0.0260196 0)
(-0.152752 0.00612068 0)
(-0.160995 -0.0179142 0)
(-0.168533 -0.0482654 0)
(-0.173014 -0.08676 0)
(-0.170037 -0.132782 0)
(-0.153277 -0.17943 0)
(-0.116418 -0.208481 0)
(-0.0623108 -0.188059 0)
(-0.00823492 -0.0901539 0)
(-0.00462626 0.0649122 0)
(-0.0293819 0.130059 0)
(-0.0553496 0.152986 0)
(-0.0779597 0.151251 0)
(-0.0951017 0.138011 0)
(-0.107671 0.120537 0)
(-0.116822 0.102256 0)
(-0.12372 0.0844889 0)
(-0.129421 0.0674881 0)
(-0.13487 0.0508965 0)
(-0.140898 0.0338308 0)
(-0.148196 0.0147543 0)
(-0.157134 -0.00875019 0)
(-0.167426 -0.0400607 0)
(-0.177321 -0.0829628 0)
(-0.182428 -0.1394 0)
(-0.174879 -0.20423 0)
(-0.14385 -0.25666 0)
(-0.086921 -0.250752 0)
(-0.0142063 -0.131458 0)
(-0.0076361 0.084645 0)
(-0.0402431 0.15801 0)
(-0.0675319 0.178099 0)
(-0.0875487 0.170234 0)
(-0.0993819 0.151211 0)
(-0.105502 0.129295 0)
(-0.10794 0.108022 0)
(-0.108361 0.0885664 0)
(-0.10808 0.0710117 0)
(-0.108167 0.0548598 0)
(-0.109547 0.039113 0)
(-0.113089 0.0220805 0)
(-0.119593 0.000980719 0)
(-0.129664 -0.0285589 0)
(-0.143029 -0.0722613 0)
(-0.15705 -0.13552 0)
(-0.164604 -0.217401 0)
(-0.151305 -0.298757 0)
(-0.107713 -0.321429 0)
(-0.0227581 -0.189816 0)
(-0.0131336 0.114078 0)
(-0.054747 0.190043 0)
(-0.075994 0.200763 0)
(-0.0843812 0.182447 0)
(-0.0821557 0.155635 0)
(-0.0743999 0.128787 0)
(-0.0641634 0.104847 0)
(-0.053429 0.084408 0)
(-0.0434681 0.0671197 0)
(-0.0351389 0.052221 0)
(-0.0291163 0.0386116 0)
(-0.0260979 0.0246335 0)
(-0.0270559 0.00759493 0)
(-0.0333212 -0.0170188 0)
(-0.046542 -0.0560121 0)
(-0.0676053 -0.117988 0)
(-0.0939445 -0.208355 0)
(-0.11134 -0.316414 0)
(-0.106163 -0.381478 0)
(-0.0310367 -0.26336 0)
(-0.0208832 0.155165 0)
(-0.0677866 0.216111 0)
(-0.0613682 0.206538 0)
(-0.0395473 0.173974 0)
(-0.00950952 0.139933 0)
(0.0213552 0.110472 0)
(0.0500625 0.0865792 0)
(0.0753632 0.0676437 0)
(0.0968501 0.0526592 0)
(0.11448 0.0405572 0)
(0.12827 0.0301996 0)
(0.138066 0.0201678 0)
(0.143175 0.00834851 0)
(0.142056 -0.00883148 0)
(0.131619 -0.0373453 0)
(0.10747 -0.0867583 0)
(0.0642037 -0.168566 0)
(0.00909613 -0.287545 0)
(-0.0532906 -0.400015 0)
(-0.0290754 -0.34058 0)
(-0.0259366 0.234656 0)
(-0.0320121 0.228928 0)
(0.0496875 0.177458 0)
(0.123173 0.132416 0)
(0.189029 0.0970788 0)
(0.243865 0.0710364 0)
(0.288283 0.052268 0)
(0.323782 0.0387324 0)
(0.351922 0.0288648 0)
(0.374017 0.0214747 0)
(0.39101 0.0155671 0)
(0.403386 0.0101414 0)
(0.410798 0.00391894 0)
(0.411981 -0.00503562 0)
(0.403381 -0.0202323 0)
(0.379201 -0.0484697 0)
(0.326949 -0.101499 0)
(0.24146 -0.199636 0)
(0.089631 -0.336583 0)
(0.0159442 -0.36901 0)
(0.215786 0.137052 0)
(0.290267 0.100432 0)
(0.451977 0.0582801 0)
(0.55411 0.0367969 0)
(0.622742 0.023332 0)
(0.67108 0.0147447 0)
(0.705478 0.00939702 0)
(0.730159 0.00607062 0)
(0.748076 0.00397396 0)
(0.761174 0.00261105 0)
(0.770636 0.00164158 0)
(0.777047 0.000796123 0)
(0.780283 -0.000246946 0)
(0.779444 -0.00173929 0)
(0.771295 -0.00444991 0)
(0.751641 -0.00947597 0)
(0.705507 -0.0201945 0)
(0.625105 -0.0393692 0)
(0.425542 -0.091933 0)
(0.269313 -0.153907 0)
)
;

boundaryField
{
    movingWall
    {
        type            fixedValue;
        value           uniform (1 0 0);
    }
    fixedWalls
    {
        type            fixedValue;
        value           uniform (0 0 0);
    }
    frontAndBack
    {
        type            empty;
    }
}


// ************************************************************************* //
