/*--------------------------------*- C++ -*----------------------------------*\
  =========                 |
  \\      /  F ield         | OpenFOAM: The Open Source CFD Toolbox
   \\    /   O peration     | Website:  https://openfoam.org
    \\  /    A nd           | Version:  13
     \\/     M anipulation  |
\*---------------------------------------------------------------------------*/
FoamFile
{
    format      ascii;
    class       volVectorField;
    location    "1";
    object      U_0;
}
// * * * * * * * * * * * * * * * * * * * * * * * * * * * * * * * * * * * * * //

dimensions      [0 1 -1 0 0 0 0];

internalField   nonuniform List<vector> 
400
(
(3.71884e-05 -3.6958e-05 0)
(-0.000521521 0.00012336 0)
(-0.00174886 0.000239863 0)
(-0.00330092 0.00028667 0)
(-0.00492661 0.000289382 0)
(-0.00646816 0.000267903 0)
(-0.00783128 0.000232927 0)
(-0.00895565 0.000188693 0)
(-0.00979607 0.000136383 0)
(-0.0103144 7.62858e-05 0)
(-0.0104777 8.90837e-06 0)
(-0.0102603 -6.45429e-05 0)
(-0.00964728 -0.000141447 0)
(-0.00864065 -0.000217428 0)
(-0.00726881 -0.000285239 0)
(-0.0056012 -0.000333176 0)
(-0.00376993 -0.000343176 0)
(-0.00199402 -0.000290692 0)
(-0.000590252 -0.000152474 0)
(4.09831e-05 3.49132e-05 0)
(-0.000124305 0.000519668 0)
(-0.00185521 0.00181388 0)
(-0.00484396 0.00268661 0)
(-0.00844012 0.00304013 0)
(-0.0121399 0.00302017 0)
(-0.0156242 0.00276589 0)
(-0.0186878 0.00236566 0)
(-0.0211938 0.00186482 0)
(-0.0230409 0.00128495 0)
(-0.024148 0.000638756 0)
(-0.0244501 -6.11813e-05 0)
(-0.0238999 -0.000797435 0)
(-0.0224758 -0.0015435 0)
(-0.0201929 -0.00225888 0)
(-0.017121 -0.00288137 0)
(-0.0134126 -0.0033164 0)
(-0.00933982 -0.00342821 0)
(-0.00533109 -0.00304937 0)
(-0.00201003 -0.00204523 0)
(-0.000125194 -0.000575867 0)
(-0.000256994 0.00179377 0)
(-0.00291789 0.00485216 0)
(-0.00715543 0.00673596 0)
(-0.0121134 0.00746482 0)
(-0.017146 0.00735737 0)
(-0.0218551 0.0067082 0)
(-0.0259781 0.00571073 0)
(-0.0293367 0.00447075 0)
(-0.0317991 0.00304372 0)
(-0.0332613 0.00146499 0)
(-0.0336408 -0.000231595 0)
(-0.0328792 -0.0020023 0)
(-0.0309503 -0.00378393 0)
(-0.0278748 -0.00548225 0)
(-0.0237433 -0.00695546 0)
(-0.0187514 -0.00799293 0)
(-0.0132451 -0.00830016 0)
(-0.00776177 -0.00752198 0)
(-0.00310333 -0.00536204 0)
(-0.000253284 -0.00192738 0)
(-0.000338422 0.00354164 0)
(-0.00365932 0.00882354 0)
(-0.00880982 0.0118866 0)
(-0.0147488 0.0130081 0)
(-0.0207211 0.0127459 0)
(-0.0262808 0.011583 0)
(-0.0311361 0.00983462 0)
(-0.0350893 0.00767677 0)
(-0.0379937 0.00520455 0)
(-0.039732 0.00247976 0)
(-0.0402089 -0.000439571 0)
(-0.0393528 -0.00348035 0)
(-0.0371246 -0.00653742 0)
(-0.0335359 -0.00945392 0)
(-0.0286772 -0.0119933 0)
(-0.022762 -0.0138057 0)
(-0.0161837 -0.0144045 0)
(-0.00956753 -0.0132015 0)
(-0.00387707 -0.00967247 0)
(-0.00032622 -0.00375687 0)
(-0.000394295 0.00561981 0)
(-0.00423621 0.0134789 0)
(-0.0101452 0.0178555 0)
(-0.0169085 0.0193757 0)
(-0.0236699 0.0189008 0)
(-0.0299442 0.0171351 0)
(-0.0354217 0.0145308 0)
(-0.039896 0.0113394 0)
(-0.0432134 0.0076964 0)
(-0.045247 0.00368861 0)
(-0.0458876 -0.000604546 0)
(-0.0450432 -0.0050836 0)
(-0.0426491 -0.00960228 0)
(-0.0386893 -0.0139371 0)
(-0.0332342 -0.0177441 0)
(-0.026498 -0.0205083 0)
(-0.0189158 -0.0215103 0)
(-0.0112141 -0.0198723 0)
(-0.00454482 -0.0147743 0)
(-0.000376711 -0.00593366 0)
(-0.00044618 0.00798158 0)
(-0.00479815 0.0187545 0)
(-0.0114681 0.0245878 0)
(-0.0190662 0.0265221 0)
(-0.0266305 0.025785 0)
(-0.0336363 0.0233397 0)
(-0.039761 0.0197928 0)
(-0.0447956 0.015476 0)
(-0.0485844 0.0105642 0)
(-0.0509932 0.0051633 0)
(-0.051896 -0.000633781 0)
(-0.0511712 -0.00671009 0)
(-0.0487121 -0.0128845 0)
(-0.0444537 -0.0188661 0)
(-0.0384203 -0.0241887 0)
(-0.0308071 -0.028136 0)
(-0.0220886 -0.0296946 0)
(-0.0131201 -0.0276173 0)
(-0.00530227 -0.0207112 0)
(-0.000429267 -0.00845162 0)
(-0.000508311 0.0106516 0)
(-0.0054531 0.0247085 0)
(-0.0130001 0.0321582 0)
(-0.0215552 0.0345257 0)
(-0.0300359 0.0334743 0)
(-0.0378762 0.0302708 0)
(-0.044745 0.0256971 0)
(-0.0504383 0.0201716 0)
(-0.054805 0.0139044 0)
(-0.0577071 0.00701153 0)
(-0.059001 -0.000414876 0)
(-0.0585268 -0.00825472 0)
(-0.0561173 -0.0163081 0)
(-0.0516285 -0.0242217 0)
(-0.0450019 -0.0313916 0)
(-0.0363783 -0.0368519 0)
(-0.0262575 -0.0392053 0)
(-0.0156551 -0.0367149 0)
(-0.00631715 -0.0277063 0)
(-0.000501213 -0.0113985 0)
(-0.000590476 0.0137031 0)
(-0.00627823 0.0314848 0)
(-0.0148977 0.040731 0)
(-0.0246029 0.0435434 0)
(-0.0341675 0.0421092 0)
(-0.0429847 0.0380541 0)
(-0.0507237 0.0323622 0)
(-0.0571971 0.0255455 0)
(-0.0622703 0.0178449 0)
(-0.0658115 0.00937279 0)
(-0.0676613 0.000200152 0)
(-0.067617 -0.00957608 0)
(-0.0654317 -0.0197643 0)
(-0.0608431 -0.029967 0)
(-0.0536526 -0.0394342 0)
(-0.0438813 -0.0468913 0)
(-0.0320087 -0.0504284 0)
(-0.0192295 -0.0476304 0)
(-0.00777683 -0.0361596 0)
(-0.000610123 -0.0149475 0)
(-0.000702375 0.0172462 0)
(-0.00734339 0.0392918 0)
(-0.017294 0.0505317 0)
(-0.0283888 0.0537776 0)
(-0.0392291 0.0518587 0)
(-0.0491728 0.0468317 0)
(-0.0579054 0.0399165 0)
(-0.0652761 0.0317277 0)
(-0.0711872 0.0225312 0)
(-0.07553 0.0124184 0)
(-0.078143 0.00141089 0)
(-0.0787821 -0.0104594 0)
(-0.0771038 -0.023054 0)
(-0.0726808 -0.0359744 0)
(-0.0650912 -0.0483377 0)
(-0.0541211 -0.0585018 0)
(-0.0401191 -0.0638685 0)
(-0.0244319 -0.0610444 0)
(-0.00996795 -0.0466986 0)
(-0.000785684 -0.0193843 0)
(-0.000858486 0.0214327 0)
(-0.00873653 0.0484 0)
(-0.0203396 0.0618354 0)
(-0.0330962 0.0654552 0)
(-0.0454041 0.062894 0)
(-0.0566018 0.0567337 0)
(-0.0664184 0.0484714 0)
(-0.07477 0.0388357 0)
(-0.0816262 0.0281105 0)
(-0.0869323 0.0163458 0)
(-0.0905517 0.00347753 0)
(-0.0922159 -0.0105827 0)
(-0.0914792 -0.0258249 0)
(-0.0877044 -0.0419345 0)
(-0.0801358 -0.0579577 0)
(-0.0681395 -0.0718551 0)
(-0.0517084 -0.0801226 0)
(-0.0321947 -0.0779175 0)
(-0.0133903 -0.0603001 0)
(-0.00108874 -0.0251878 0)
(-0.00108482 0.0264749 0)
(-0.010592 0.0591568 0)
(-0.0242399 0.0749647 0)
(-0.0389498 0.0788103 0)
(-0.0528866 0.0753619 0)
(-0.0654042 0.0678464 0)
(-0.076318 0.0580877 0)
(-0.0856541 0.0469408 0)
(-0.0934923 0.0347015 0)
(-0.0998764 0.0213575 0)
(-0.104742 0.00671792 0)
(-0.107838 -0.00949531 0)
(-0.108642 -0.0275112 0)
(-0.106282 -0.047247 0)
(-0.0995493 -0.0678313 0)
(-0.0871295 -0.086888 0)
(-0.0682649 -0.0997921 0)
(-0.0439259 -0.0995552 0)
(-0.0189021 -0.0784903 0)
(-0.00164375 -0.0331894 0)
(-0.00143057 0.032686 0)
(-0.0131281 0.0720153 0)
(-0.0292899 0.0902868 0)
(-0.0462304 0.0940555 0)
(-0.0618678 0.0893403 0)
(-0.0756386 0.0801602 0)
(-0.0875075 0.0687182 0)
(-0.0976669 0.0560072 0)
(-0.106361 0.0423306 0)
(-0.11379 0.0275968 0)
(-0.120029 0.0114503 0)
(-0.124923 -0.00665317 0)
(-0.127946 -0.0273221 0)
(-0.128027 -0.0509316 0)
(-0.123426 -0.0769897 0)
(-0.111859 -0.103036 0)
(-0.0912413 -0.123235 0)
(-0.0613852 -0.127552 0)
(-0.0278293 -0.103568 0)
(-0.00269033 -0.0448303 0)
(-0.00198987 0.0405519 0)
(-0.0166982 0.0875699 0)
(-0.0358913 0.10819 0)
(-0.0552328 0.111317 0)
(-0.0724228 0.104751 0)
(-0.0871032 0.0934708 0)
(-0.0994784 0.0801004 0)
(-0.109976 0.0657745 0)
(-0.119065 0.0508003 0)
(-0.127165 0.0349989 0)
(-0.134569 0.0178285 0)
(-0.141324 -0.00158447 0)
(-0.147039 -0.0243784 0)
(-0.150587 -0.0516766 0)
(-0.149763 -0.0838403 0)
(-0.141137 -0.118885 0)
(-0.120673 -0.150036 0)
(-0.085817 -0.163348 0)
(-0.041815 -0.138625 0)
(-0.00465188 -0.0624855 0)
(-0.0029416 0.0508524 0)
(-0.0218545 0.10657 0)
(-0.0445034 0.128983 0)
(-0.0660607 0.130465 0)
(-0.0841389 0.121168 0)
(-0.0988061 0.107177 0)
(-0.11064 0.0915489 0)
(-0.120387 0.0755416 0)
(-0.128794 0.0594539 0)
(-0.136547 0.0430214 0)
(-0.144215 0.0255203 0)
(-0.152152 0.00572783 0)
(-0.160278 -0.0181326 0)
(-0.167696 -0.0482152 0)
(-0.17208 -0.0863345 0)
(-0.169069 -0.131907 0)
(-0.152383 -0.17814 0)
(-0.115737 -0.207004 0)
(-0.0619548 -0.186843 0)
(-0.00819652 -0.0896899 0)
(-0.00463003 0.0648767 0)
(-0.0293986 0.12987 0)
(-0.0553719 0.152622 0)
(-0.0779788 0.150741 0)
(-0.0951104 0.137407 0)
(-0.107666 0.119884 0)
(-0.1168 0.101586 0)
(-0.12368 0.0838196 0)
(-0.129362 0.0668334 0)
(-0.134787 0.0502698 0)
(-0.140783 0.0332539 0)
(-0.148036 0.0142672 0)
(-0.156911 -0.00907753 0)
(-0.167122 -0.0401173 0)
(-0.176926 -0.0826157 0)
(-0.181954 -0.138537 0)
(-0.174369 -0.202842 0)
(-0.143383 -0.254953 0)
(-0.0866033 -0.249216 0)
(-0.0141511 -0.130792 0)
(-0.00764188 0.0846251 0)
(-0.0402841 0.157843 0)
(-0.0676151 0.177753 0)
(-0.0876757 0.169739 0)
(-0.0995528 0.150618 0)
(-0.105718 0.128652 0)
(-0.108204 0.107361 0)
(-0.108676 0.0879083 0)
(-0.108449 0.0703682 0)
(-0.108592 0.0542414 0)
(-0.110027 0.0385364 0)
(-0.113617 0.0215797 0)
(-0.120149 0.000619691 0)
(-0.130219 -0.0286777 0)
(-0.143541 -0.072003 0)
(-0.157461 -0.134761 0)
(-0.164851 -0.216103 0)
(-0.151354 -0.297066 0)
(-0.107601 -0.31977 0)
(-0.0226981 -0.188989 0)
(-0.0131394 0.114087 0)
(-0.0548077 0.189932 0)
(-0.0761367 0.200483 0)
(-0.0846227 0.182023 0)
(-0.0825072 0.155118 0)
(-0.0748698 0.128224 0)
(-0.0647576 0.104272 0)
(-0.0541527 0.0838406 0)
(-0.0443261 0.0665721 0)
(-0.0361344 0.0517017 0)
(-0.0302499 0.0381326 0)
(-0.0273644 0.0242202 0)
(-0.02844 0.00729654 0)
(-0.0347866 -0.0171271 0)
(-0.0480187 -0.0558276 0)
(-0.0689841 -0.117418 0)
(-0.095073 -0.207363 0)
(-0.112063 -0.315076 0)
(-0.106408 -0.380049 0)
(-0.0310062 -0.262524 0)
(-0.020882 0.155206 0)
(-0.0678311 0.216074 0)
(-0.0615064 0.206367 0)
(-0.0398178 0.173681 0)
(-0.00994005 0.139562 0)
(0.0207463 0.110066 0)
(0.049266 0.086167 0)
(0.0743768 0.0672446 0)
(0.095674 0.0522835 0)
(0.113117 0.0402111 0)
(0.126725 0.029891 0)
(0.136351 0.0199125 0)
(0.141311 0.00817665 0)
(0.140087 -0.00887145 0)
(0.129623 -0.0372005 0)
(0.105565 -0.0863929 0)
(0.0625564 -0.167987 0)
(0.00790677 -0.286783 0)
(-0.0538589 -0.399143 0)
(-0.0291181 -0.339987 0)
(-0.0259251 0.234702 0)
(-0.0319952 0.228949 0)
(0.0496539 0.177402 0)
(0.123026 0.132287 0)
(0.188723 0.0969015 0)
(0.243371 0.0708372 0)
(0.287592 0.0520677 0)
(0.322894 0.0385433 0)
(0.350845 0.0286934 0)
(0.372764 0.0213243 0)
(0.389594 0.0154416 0)
(0.401829 0.0100486 0)
(0.409128 0.00387349 0)
(0.410247 -0.00501119 0)
(0.401657 -0.0201171 0)
(0.377586 -0.0482624 0)
(0.325561 -0.101244 0)
(0.240421 -0.19938 0)
(0.0890486 -0.336321 0)
(0.0158317 -0.368805 0)
(0.215802 0.137069 0)
(0.290313 0.100452 0)
(0.452022 0.0582876 0)
(0.554109 0.0367917 0)
(0.622657 0.0233184 0)
(0.670891 0.0147274 0)
(0.70518 0.00937972 0)
(0.729756 0.0060554 0)
(0.74758 0.00396177 0)
(0.760595 0.00260236 0)
(0.769988 0.00163708 0)
(0.776346 0.000797393 0)
(0.779552 -0.000237079 0)
(0.778714 -0.00171717 0)
(0.770614 -0.00441197 0)
(0.751059 -0.00942296 0)
(0.705069 -0.0201369 0)
(0.624816 -0.0393263 0)
(0.425382 -0.0919255 0)
(0.269275 -0.153901 0)
)
;

boundaryField
{
    movingWall
    {
        type            calculated;
        value           uniform (1 0 0);
    }
    fixedWalls
    {
        type            calculated;
        value           uniform (0 0 0);
    }
    frontAndBack
    {
        type            empty;
    }
}


// ************************************************************************* //
