/*--------------------------------*- C++ -*----------------------------------*\
  =========                 |
  \\      /  F ield         | OpenFOAM: The Open Source CFD Toolbox
   \\    /   O peration     | Website:  https://openfoam.org
    \\  /    A nd           | Version:  13
     \\/     M anipulation  |
\*---------------------------------------------------------------------------*/
FoamFile
{
    format      ascii;
    class       volScalarField;
    location    "40";
    object      p;
}
// * * * * * * * * * * * * * * * * * * * * * * * * * * * * * * * * * * * * * //

dimensions      [0 2 -2 0 0 0 0];

internalField   nonuniform List<scalar> 
400
(
5.22075e-08
-0.00057248
-0.00121608
-0.00171895
-0.00195928
-0.00188477
-0.00147057
-0.000705619
0.00040121
0.00180587
0.00341461
0.00507493
0.00659096
0.00775102
0.00837972
0.00839555
0.00785526
0.00696882
0.00604794
0.00549426
0.00056989
-2.03793e-05
-0.000569767
-0.000957134
-0.00113211
-0.00106206
-0.000726062
-0.000109333
0.000788681
0.00193936
0.0032697
0.00466004
0.00594062
0.00692973
0.00747417
0.00750171
0.00705914
0.00631876
0.00554318
0.00497256
0.00124563
0.000492914
-8.6796e-05
-0.000441456
-0.000606246
-0.000576382
-0.000337366
0.000132502
0.000849604
0.0018068
0.00295476
0.00419171
0.00536435
0.00629374
0.00681919
0.00685284
0.00642069
0.00566812
0.00480886
0.00403712
0.00174052
0.000763625
7.35917e-05
-0.000322022
-0.000537211
-0.000592827
-0.000478322
-0.000160247
0.000399941
0.001222
0.0022816
0.00349279
0.00470163
0.00570966
0.00631934
0.0063981
0.00593346
0.00505051
0.00394835
0.00284438
0.00179541
0.000595659
-0.000227766
-0.000704895
-0.00101822
-0.00120732
-0.00125945
-0.00112308
-0.000730576
-2.79018e-05
0.000991682
0.00226353
0.00363001
0.00486119
0.00569863
0.00593228
0.00548036
0.00443545
0.00299989
0.00146205
0.00119465
-0.000203084
-0.00116335
-0.00175276
-0.00221147
-0.00259073
-0.00286933
-0.00297127
-0.00279198
-0.00223298
-0.00124412
0.000150472
0.0017928
0.00341979
0.00469018
0.00527469
0.00497187
0.00380564
0.00197898
-0.000104088
-0.000241666
-0.00180014
-0.0028923
-0.00362226
-0.00427775
-0.00491668
-0.00550512
-0.00593758
-0.0060646
-0.00572848
-0.00480695
-0.00328521
-0.00127038
0.000946656
0.00292625
0.00416983
0.00427923
0.00313551
0.000902577
-0.00185629
-0.00265198
-0.00432639
-0.00554129
-0.00643931
-0.00734714
-0.00832776
-0.00933392
-0.0102288
-0.0108113
-0.0108505
-0.0101336
-0.00853902
-0.00610709
-0.00311229
-8.64591e-05
0.00225501
0.00321262
0.00239525
-0.000177403
-0.00375299
-0.00612139
-0.00786173
-0.00918476
-0.0102718
-0.011483
-0.0128893
-0.0144344
-0.0159529
-0.0171896
-0.0178277
-0.0175354
-0.0160428
-0.0132531
-0.00935754
-0.00493606
-0.000941443
0.00150805
0.00155455
-0.00113719
-0.00564684
-0.0106715
-0.0124237
-0.0138275
-0.0151021
-0.0166422
-0.0185358
-0.0207272
-0.0230305
-0.0251404
-0.0266492
-0.0270841
-0.0259776
-0.0230343
-0.0182541
-0.0121678
-0.00592218
-0.00114232
0.000602986
-0.00173143
-0.00719519
-0.0162605
-0.0179654
-0.0193957
-0.0208062
-0.0226415
-0.0250234
-0.0279113
-0.0311115
-0.0342775
-0.0369139
-0.0383953
-0.0380067
-0.0352842
-0.0298336
-0.0220052
-0.0130065
-0.00495986
-0.000375612
-0.00151607
-0.00772072
-0.0228029
-0.02439
-0.0257427
-0.0271484
-0.0291435
-0.0319106
-0.0354424
-0.0395494
-0.0438549
-0.0477847
-0.05058
-0.0513772
-0.0491635
-0.043394
-0.0339889
-0.0219777
-0.00980598
-0.00102482
0.000279994
-0.00600005
-0.0302225
-0.0315862
-0.0326696
-0.033792
-0.0356681
-0.0385799
-0.042569
-0.047455
-0.0528343
-0.0580627
-0.0622511
-0.0643106
-0.0630223
-0.057332
-0.0466929
-0.031705
-0.0148012
-0.00041713
0.00496555
2.27529e-05
-0.03856
-0.0394895
-0.0399612
-0.0403269
-0.041635
-0.0443096
-0.0484456
-0.0538593
-0.0601059
-0.0664654
-0.0719294
-0.0752215
-0.0748704
-0.0694214
-0.0578071
-0.0400021
-0.0180233
0.00327949
0.0146985
0.0135557
-0.0481748
-0.048157
-0.0474035
-0.0462841
-0.0464121
-0.0483712
-0.0522815
-0.0579131
-0.0647394
-0.0719354
-0.0783607
-0.0825613
-0.0828322
-0.0773739
-0.0646453
-0.043937
-0.0165435
0.0130188
0.032931
0.0392807
-0.060235
-0.0579577
-0.0548672
-0.0512135
-0.0494272
-0.0501784
-0.0535204
-0.0590937
-0.0662201
-0.0739188
-0.0808795
-0.0854535
-0.085707
-0.0795199
-0.064942
-0.0406113
-0.0069789
0.0328168
0.0647937
0.0836768
-0.0774814
-0.0694732
-0.0620875
-0.0545495
-0.050139
-0.0493251
-0.0519045
-0.0572611
-0.0644862
-0.072385
-0.07944
-0.0837784
-0.0832185
-0.075283
-0.0576214
-0.0282113
0.0133524
0.066661
0.115752
0.154807
-0.108926
-0.0850401
-0.0697734
-0.0563916
-0.0485411
-0.0458812
-0.0476243
-0.0527151
-0.0599172
-0.0677771
-0.0745524
-0.0781401
-0.0761044
-0.0655426
-0.0436433
-0.00744513
0.0447431
0.114933
0.188078
0.263281
-0.168693
-0.100746
-0.0730932
-0.0522882
-0.0413103
-0.0376998
-0.0394421
-0.0448655
-0.0524158
-0.060447
-0.067074
-0.0700479
-0.0666876
-0.0537885
-0.0278899
0.0154098
0.0800715
0.17276
0.285854
0.445985
-0.402754
-0.139031
-0.0734592
-0.0447302
-0.0305719
-0.0266176
-0.0290857
-0.0353736
-0.0436541
-0.0522074
-0.0591241
-0.0621456
-0.0586176
-0.0452141
-0.0174509
0.0310786
0.108496
0.236657
0.427487
0.79368
)
;

boundaryField
{
    movingWall
    {
        type            zeroGradient;
    }
    fixedWalls
    {
        type            zeroGradient;
    }
    frontAndBack
    {
        type            empty;
    }
}


// ************************************************************************* //
