/*--------------------------------*- C++ -*----------------------------------*\
  =========                 |
  \\      /  F ield         | OpenFOAM: The Open Source CFD Toolbox
   \\    /   O peration     | Website:  https://openfoam.org
    \\  /    A nd           | Version:  13
     \\/     M anipulation  |
\*---------------------------------------------------------------------------*/
FoamFile
{
    format      ascii;
    class       surfaceScalarField;
    location    "40";
    object      phi_0;
}
// * * * * * * * * * * * * * * * * * * * * * * * * * * * * * * * * * * * * * //

dimensions      [0 3 -1 0 0 0 0];

internalField   nonuniform List<scalar> 
760
(
4.39688e-06
-4.39748e-06
-3.89727e-05
4.33696e-05
-0.000131157
9.21843e-05
-0.00025659
0.000125433
-0.000399493
0.000142904
-0.000546411
0.000146918
-0.000685403
0.000138992
-0.000804703
0.0001193
-0.000892151
8.74482e-05
-0.0009359
4.37486e-05
-0.000926244
-9.65515e-06
-0.000858569
-6.76751e-05
-0.000735934
-0.000122635
-0.000571088
-0.000164845
-0.000386253
-0.000184835
-0.000210072
-0.000176181
-7.16525e-05
-0.00013842
7.53076e-06
-7.91833e-05
2.35971e-05
-1.60663e-05
2.35971e-05
-4.70762e-05
4.26787e-05
-0.000210002
0.000206296
-0.000473794
0.000355976
-0.00080603
0.000457668
-0.0011728
0.00050967
-0.00154263
0.000516748
-0.00188603
0.000482391
-0.00217412
0.000407398
-0.00237861
0.000291935
-0.00247379
0.000138925
-0.00244069
-4.27539e-05
-0.00227174
-0.000236618
-0.0019764
-0.000417983
-0.00158359
-0.00055765
-0.00114111
-0.000627315
-0.000709514
-0.000607779
-0.000350413
-0.000497521
-0.000110603
-0.000318993
-5.66865e-06
-0.000121001
1.79284e-05
-0.000111453
0.000154131
-0.000405326
0.00050017
-0.000834762
0.000785412
-0.00135039
0.000973299
-0.00190532
0.0010646
-0.00245608
0.00106751
-0.00296139
0.000987693
-0.00338095
0.000826967
-0.00367612
0.000587096
-0.00381269
0.000275502
-0.00376594
-8.9508e-05
-0.00352642
-0.000476133
-0.003106
-0.000838405
-0.00254161
-0.00112204
-0.00189516
-0.00127376
-0.0012473
-0.00125565
-0.000683478
-0.00106134
-0.000273875
-0.000728595
-5.21075e-05
-0.000342769
-3.41791e-05
-0.000173177
0.000327309
-0.000593719
0.000920711
-0.00117949
0.00137118
-0.00186215
0.00165596
-0.00258345
0.0017859
-0.00329162
0.00177567
-0.00393803
0.00163411
-0.00447546
0.00136439
-0.00485855
0.000970184
-0.0050468
0.000463748
-0.00500954
-0.000126762
-0.00473215
-0.000753528
-0.00422299
-0.00134756
-0.00351921
-0.00182582
-0.00268947
-0.0021035
-0.00183013
-0.00211499
-0.00105164
-0.00183983
-0.000454581
-0.00132565
-0.00010196
-0.00069539
-0.000136139
-0.000228307
0.000555615
-0.000763714
0.00145612
-0.00149122
0.00209868
-0.00232418
0.00248892
-0.00319461
0.00265634
-0.00404526
0.00262633
-0.00482369
0.00241254
-0.00547905
0.00201975
-0.00596168
0.00145282
-0.0062253
0.000727372
-0.00623145
-0.00012062
-0.0059554
-0.00102957
-0.00539491
-0.00190805
-0.004579
-0.00264174
-0.00357589
-0.00310661
-0.00249492
-0.00319596
-0.0014758
-0.00285896
-0.000660972
-0.00214048
-0.000156598
-0.00119976
-0.000292737
-0.000274794
0.000830409
-0.000908237
0.00208956
-0.00175768
0.00294813
-0.00272091
0.00345215
-0.00372251
0.00365794
-0.00470241
0.00360623
-0.00560736
0.00331749
-0.00638575
0.00279813
-0.00698557
0.00205265
-0.00735504
0.00109684
-0.00744604
-2.96209e-05
-0.00721877
-0.00125685
-0.00665307
-0.00247375
-0.0057603
-0.00353451
-0.00459879
-0.00426811
-0.00328511
-0.00450964
-0.00199097
-0.0041531
-0.00091414
-0.00321731
-0.00022326
-0.00189064
-0.000515997
-0.000310715
0.00114112
-0.0010209
0.00279975
-0.00196696
0.00389418
-0.00303495
0.00452014
-0.00414473
0.00476772
-0.00523607
0.00469757
-0.00625776
0.00433917
-0.00716026
0.00370064
-0.00789165
0.00278403
-0.00839601
0.00160121
-0.00861417
0.000188531
-0.00848991
-0.0013811
-0.00797786
-0.0029858
-0.00706154
-0.00445082
-0.00577625
-0.00555341
-0.00423342
-0.00605246
-0.0026328
-0.00575371
-0.00123953
-0.00461058
-0.000311406
-0.00281877
-0.000827402
-0.000334156
0.00147528
-0.00109555
0.00356114
-0.002107
0.00490563
-0.00324693
0.00566007
-0.0044332
0.00595399
-0.00560789
0.00587226
-0.00672458
0.00545585
-0.00773897
0.00471504
-0.00860253
0.00364759
-0.00925839
0.00225706
-0.00963972
0.000569864
-0.00967263
-0.00134819
-0.00928433
-0.0033741
-0.00842125
-0.0053139
-0.00707923
-0.00689543
-0.00534358
-0.00778811
-0.00342562
-0.00767168
-0.0016617
-0.0063745
-0.000431581
-0.00404889
-0.00125898
-0.000343866
0.00181915
-0.00112767
0.00434495
-0.00216777
0.00594573
-0.00333857
0.00683087
-0.00455827
0.00717369
-0.00577345
0.00708744
-0.00694515
0.00662755
-0.00803779
0.00580768
-0.00901072
0.00462052
-0.00981162
0.00305797
-0.0103719
0.00113019
-0.0106057
-0.00111442
-0.0104147
-0.0035651
-0.0097033
-0.00602533
-0.00841168
-0.00818705
-0.0065703
-0.00962949
-0.00436863
-0.00987335
-0.00219924
-0.00854388
-0.000595133
-0.005653
-0.00185412
-0.000340399
0.00215954
-0.00111711
0.00512166
-0.00214539
0.00697401
-0.00329822
0.00798369
-0.00449605
0.00837153
-0.00569193
0.00828332
-0.00685687
0.00779248
-0.00796763
0.00691844
-0.00899667
0.00564955
-0.00990354
0.00396484
-0.0106273
0.00185395
-0.01108
-0.000661744
-0.0111479
-0.00349722
-0.0106959
-0.00647732
-0.00959831
-0.00928461
-0.00780011
-0.0114277
-0.00541866
-0.0122548
-0.00285706
-0.0111055
-0.000813805
-0.00769625
-0.00266792
-0.000327669
0.00248721
-0.00107161
0.0058656
-0.00204752
0.00794992
-0.00312809
0.00906427
-0.004238
0.00948144
-0.00533894
0.00938426
-0.00641444
0.00886799
-0.00745703
0.00796103
-0.00845739
0.00664991
-0.00939457
0.00490203
-0.0102266
0.002686
-0.0108749
-1.35128e-05
-0.0112316
-0.00314046
-0.0111328
-0.00657611
-0.0103901
-0.0100274
-0.00884068
-0.0129771
-0.00647169
-0.0146238
-0.00361423
-0.0139629
-0.00109821
-0.0102123
-0.00376613
-0.000315005
0.00280222
-0.00101102
0.00656162
-0.00189905
0.00883795
-0.0028514
0.0100166
-0.00379999
0.01043
-0.00471867
0.0103029
-0.00560656
0.00975588
-0.00647481
0.00882928
-0.00733607
0.00751117
-0.00819481
0.00576076
-0.00903624
0.00352744
-0.00981817
0.00076842
-0.0104385
-0.00252014
-0.0107416
-0.00627301
-0.0104956
-0.0102733
-0.00942919
-0.0140435
-0.00735031
-0.0167027
-0.00440755
-0.0169057
-0.00145377
-0.0131661
-0.00521991
-0.00032015
0.00312237
-0.000972018
0.00721349
-0.00174702
0.00961295
-0.00251682
0.0107864
-0.00322709
0.0111403
-0.00387018
0.010946
-0.0044652
0.0103509
-0.00504461
0.00940869
-0.00564487
0.00811143
-0.00629845
0.00641435
-0.00702455
0.00425354
-0.00781658
0.00156045
-0.00861883
-0.00171789
-0.00930324
-0.0055886
-0.00963535
-0.00994124
-0.00926553
-0.0144133
-0.00780701
-0.0181612
-0.00511449
-0.0195982
-0.00187244
-0.0164081
-0.00709235
-0.000374069
0.00349644
-0.00101323
0.00785264
-0.00166244
0.0102622
-0.00219632
0.0113203
-0.00258764
0.0115316
-0.0028586
0.011217
-0.0030548
0.0105471
-0.00323231
0.00958619
-0.00345092
0.00833004
-0.00376944
0.00673286
-0.00423979
0.00472389
-0.00489719
0.00221785
-0.00574095
-0.000874135
-0.00670345
-0.0046261
-0.00759855
-0.00904614
-0.00806158
-0.0139503
-0.00754674
-0.018676
-0.00554237
-0.0216026
-0.00231875
-0.0196317
-0.0094111
-0.000529446
0.00402588
-0.00121871
0.00854191
-0.00173227
0.0107757
-0.00196515
0.0115532
-0.0019433
0.0115098
-0.00173662
0.0110103
-0.00142604
0.0102365
-0.0010933
0.00925345
-0.000819177
0.00805592
-0.000683715
0.0065974
-0.000765228
0.0048054
-0.00113629
0.00258891
-0.00185248
-0.000157941
-0.00292495
-0.00355364
-0.00426453
-0.00770656
-0.00557758
-0.0126372
-0.00625523
-0.0179984
-0.00542586
-0.022432
-0.00270917
-0.0223484
-0.0121203
-0.000868732
0.00489462
-0.00168415
0.00935732
-0.00201349
0.0111051
-0.00182737
0.0113671
-0.00125253
0.0109349
-0.000432082
0.0101899
0.000508234
0.00929621
0.00146084
0.00830084
0.00232853
0.00718823
0.00301745
0.00590848
0.00343197
0.00439088
0.00347256
0.00254832
0.00303762
0.000276998
0.00203949
-0.00255551
0.000444163
-0.00611123
-0.00160995
-0.0105831
-0.00360093
-0.0160074
-0.00441534
-0.0216175
-0.00288084
-0.0238829
-0.0150011
-0.00149474
0.00638935
-0.00241122
0.0102738
-0.00233095
0.0110248
-0.00145104
0.0104871
-7.61349e-05
0.00956003
0.00155329
0.00856043
0.00326671
0.00758279
0.0049396
0.00662796
0.00647018
0.00565765
0.00776295
0.00461571
0.00871779
0.00343605
0.00922263
0.00204347
0.00914728
0.000352343
0.00834965
-0.00175787
0.00668351
-0.00444509
0.00408872
-0.00798834
0.000840763
-0.0127594
-0.00200515
-0.0187716
-0.00250291
-0.0233852
-0.017504
-0.00234101
0.00873036
-0.0028199
0.0107527
-0.00158539
0.00979029
0.000573875
0.00832788
0.00312131
0.00701259
0.00575796
0.00592379
0.00831753
0.00502322
0.010699
0.00424652
0.0128262
0.00353041
0.0146252
0.00281669
0.0160108
0.00205051
0.016877
0.00117721
0.0170879
0.000141501
0.016481
-0.00115096
0.0148419
-0.00280603
0.0119354
-0.00508187
0.00764981
-0.00847381
0.00261201
-0.0137338
-0.000908526
-0.0198646
-0.0184125
-0.00200263
0.010733
0.000357661
0.0083924
0.00431899
0.00582896
0.00833387
0.00431301
0.0120918
0.00325468
0.0154941
0.0025215
0.0185181
0.00199916
0.0211646
0.00160008
0.0234282
0.0012668
0.0252853
0.000959615
0.0266876
0.000648203
0.0275564
0.000308416
0.0277823
-8.44289e-05
0.0272132
-0.000581875
0.0256275
-0.00122032
0.0226957
-0.0021501
0.0179511
-0.00372918
0.01095
-0.00673275
0.00302462
-0.0119392
-0.0153879
0.010733
0.0191254
0.0249544
0.0292674
0.032522
0.0350435
0.0370427
0.0386428
0.0399096
0.0408692
0.0415174
0.0418258
0.0417414
0.0411595
0.0399392
0.0377891
0.0340599
0.0273272
0.0153879
)
;

boundaryField
{
    movingWall
    {
        type            calculated;
        value           uniform 0;
    }
    fixedWalls
    {
        type            calculated;
        value           uniform 0;
    }
    frontAndBack
    {
        type            empty;
    }
}


// ************************************************************************* //
