/*--------------------------------*- C++ -*----------------------------------*\
  =========                 |
  \\      /  F ield         | OpenFOAM: The Open Source CFD Toolbox
   \\    /   O peration     | Website:  https://openfoam.org
    \\  /    A nd           | Version:  13
     \\/     M anipulation  |
\*---------------------------------------------------------------------------*/
FoamFile
{
    format      ascii;
    class       volScalarField;
    location    "20";
    object      p;
}
// * * * * * * * * * * * * * * * * * * * * * * * * * * * * * * * * * * * * * //

dimensions      [0 2 -2 0 0 0 0];

internalField   nonuniform List<scalar> 
400
(
8.96543e-07
-0.000571398
-0.00121479
-0.00171744
-0.00195753
-0.0018828
-0.00146844
-0.000703401
0.000403463
0.00180811
0.00341677
0.00507698
0.00659294
0.007753
0.00838181
0.00839784
0.00785782
0.00697166
0.00605095
0.00549736
0.000570695
-1.94129e-05
-0.000568606
-0.000955789
-0.00113056
-0.00106029
-0.00072409
-0.000107209
0.000790891
0.00194161
0.00327194
0.00466225
0.00594279
0.00693192
0.00747646
0.00750419
0.00706185
0.0063217
0.00554628
0.00497574
0.0012462
0.000493679
-8.58075e-05
-0.000440272
-0.000604852
-0.000574753
-0.000335484
0.000134614
0.000851884
0.00180918
0.00295718
0.00419413
0.00536677
0.00629617
0.00682169
0.00685551
0.00642358
0.00567122
0.00481214
0.00404049
0.0017409
0.000764235
7.44524e-05
-0.000320931
-0.000535866
-0.000591194
-0.000476373
-0.000157985
0.000402457
0.00122468
0.00228437
0.00349557
0.0047044
0.00571241
0.00632213
0.00640101
0.00593657
0.00505385
0.00395189
0.00284807
0.00179569
0.00059622
-0.00022693
-0.000703786
-0.00101678
-0.0012055
-0.00125722
-0.00112044
-0.000727574
-2.46536e-05
0.00099505
0.00226691
0.00363333
0.00486444
0.00570184
0.00593554
0.00548377
0.00443908
0.00300376
0.00146613
0.00119501
-0.000202406
-0.00116237
-0.00175146
-0.00220975
-0.00258851
-0.00286656
-0.00296794
-0.00278819
-0.00222885
-0.00123984
0.000154779
0.00179699
0.0034238
0.00469403
0.00527846
0.00497569
0.00380964
0.00198324
-9.95517e-05
-0.000241002
-0.00179914
-0.00289097
-0.00362055
-0.00427551
-0.00491379
-0.00550151
-0.00593327
-0.00605966
-0.00572309
-0.0048013
-0.00327958
-0.00126495
0.00095176
0.00293101
0.00417432
0.00428361
0.00313997
0.000907283
-0.00185127
-0.00265076
-0.00432483
-0.00553939
-0.00643696
-0.00734414
-0.00832395
-0.0093292
-0.0102232
-0.0108049
-0.0108435
-0.0101263
-0.00853172
-0.00610006
-0.00310574
-8.04887e-05
0.00226045
0.00321771
0.00240025
-0.000172218
-0.00374747
-0.00611937
-0.00785942
-0.0091821
-0.0102686
-0.0114791
-0.0128844
-0.0144284
-0.0159458
-0.0171816
-0.0178189
-0.0175262
-0.0160336
-0.0132442
-0.00934928
-0.00492862
-0.00093483
0.001514
0.00156016
-0.00113153
-0.00564085
-0.0106685
-0.0124205
-0.013824
-0.0150979
-0.0166372
-0.0185297
-0.0207198
-0.0230219
-0.0251308
-0.0266387
-0.0270732
-0.0259665
-0.0230236
-0.0182442
-0.0121588
-0.00591429
-0.00113542
0.000609236
-0.00172535
-0.00718885
-0.0162565
-0.0179612
-0.0193913
-0.0208011
-0.0226355
-0.0250162
-0.0279028
-0.0311016
-0.0342664
-0.0369019
-0.0383829
-0.0379937
-0.035272
-0.0298223
-0.021995
-0.0129975
-0.00495211
-0.000368802
-0.00150969
-0.00771425
-0.0227979
-0.024385
-0.0257375
-0.0271426
-0.0291368
-0.0319027
-0.0354331
-0.0395387
-0.043843
-0.0477719
-0.0505668
-0.0513647
-0.0491509
-0.0433823
-0.0339783
-0.0219683
-0.00979781
-0.00101774
0.000286422
-0.00599376
-0.0302166
-0.0315805
-0.0326638
-0.0337857
-0.035661
-0.0385716
-0.0425593
-0.047444
-0.0528222
-0.0580498
-0.0622379
-0.0642978
-0.0630101
-0.0573208
-0.0466828
-0.031696
-0.0147933
-0.000410322
0.00497161
2.84392e-05
-0.0385535
-0.0394832
-0.0399552
-0.0403206
-0.0416279
-0.0443015
-0.0484362
-0.0538487
-0.0600942
-0.0664532
-0.0719171
-0.0752097
-0.0748595
-0.0694117
-0.0577986
-0.0399947
-0.0180168
0.00328528
0.0147037
0.0135603
-0.0481681
-0.0481507
-0.0473975
-0.0462782
-0.0464056
-0.0483639
-0.0522729
-0.0579033
-0.0647286
-0.0719241
-0.0783495
-0.0825509
-0.0828232
-0.0773662
-0.064639
-0.0439318
-0.016539
0.0130228
0.0329347
0.0392838
-0.0602286
-0.0579518
-0.0548619
-0.0512084
-0.0494218
-0.0501722
-0.0535129
-0.059085
-0.0662104
-0.0739086
-0.0808696
-0.0854446
-0.0856996
-0.0795143
-0.064938
-0.0406086
-0.0069769
0.0328186
0.0647954
0.0836781
-0.0774758
-0.0694682
-0.0620832
-0.0545457
-0.0501351
-0.0493203
-0.0518984
-0.0572536
-0.0644777
-0.072376
-0.0794313
-0.0837707
-0.0832124
-0.0752789
-0.0576192
-0.0282106
0.0133522
0.0666607
0.115752
0.154807
-0.108921
-0.0850364
-0.0697706
-0.0563894
-0.0485387
-0.0458779
-0.0476195
-0.0527087
-0.0599097
-0.067769
-0.0745445
-0.0781333
-0.0760992
-0.0655394
-0.0436421
-0.00744553
0.0447416
0.114931
0.188077
0.263279
-0.16869
-0.100743
-0.0730915
-0.0522872
-0.041309
-0.0376975
-0.0394383
-0.0448601
-0.0524092
-0.0604396
-0.0670667
-0.0700415
-0.0666828
-0.0537855
-0.0278888
0.0154093
0.0800699
0.172758
0.285852
0.445983
-0.402751
-0.139028
-0.0734578
-0.0447296
-0.0305711
-0.0266159
-0.0290825
-0.0353688
-0.043648
-0.0522005
-0.0591171
-0.0621393
-0.0586125
-0.0452109
-0.0174495
0.0310784
0.108494
0.236655
0.427485
0.793678
)
;

boundaryField
{
    movingWall
    {
        type            zeroGradient;
    }
    fixedWalls
    {
        type            zeroGradient;
    }
    frontAndBack
    {
        type            empty;
    }
}


// ************************************************************************* //
