/*--------------------------------*- C++ -*----------------------------------*\
  =========                 |
  \\      /  F ield         | OpenFOAM: The Open Source CFD Toolbox
   \\    /   O peration     | Website:  https://openfoam.org
    \\  /    A nd           | Version:  13
     \\/     M anipulation  |
\*---------------------------------------------------------------------------*/
FoamFile
{
    format      ascii;
    class       surfaceScalarField;
    location    "20";
    object      phi_0;
}
// * * * * * * * * * * * * * * * * * * * * * * * * * * * * * * * * * * * * * //

dimensions      [0 3 -1 0 0 0 0];

internalField   nonuniform List<scalar> 
760
(
4.38729e-06
-4.3973e-06
-3.8975e-05
4.33623e-05
-0.000131142
9.21668e-05
-0.000256549
0.000125408
-0.000399424
0.000142874
-0.000546311
0.000146887
-0.000685274
0.000138963
-0.000804549
0.000119276
-0.000891981
8.74324e-05
-0.000935725
4.37439e-05
-0.000926079
-9.64683e-06
-0.000858425
-6.76538e-05
-0.000735821
-0.000122604
-0.000571013
-0.000164808
-0.000386215
-0.000184798
-0.000210065
-0.000176151
-7.16632e-05
-0.000138401
7.51555e-06
-7.91786e-05
2.35886e-05
-1.6073e-05
2.35887e-05
-4.7071e-05
4.26737e-05
-0.000209965
0.000206256
-0.0004737
0.000355902
-0.000805862
0.00045757
-0.00117255
0.000509559
-0.0015423
0.000516637
-0.00188562
0.00048229
-0.00217367
0.000407318
-0.00237812
0.000291887
-0.00247329
0.000138916
-0.00244022
-4.27188e-05
-0.00227133
-0.000236541
-0.00197606
-0.000417872
-0.00158335
-0.000557521
-0.00114096
-0.000627186
-0.000709442
-0.000607671
-0.000350394
-0.000497449
-0.00011061
-0.000318963
-5.67642e-06
-0.000121006
1.79123e-05
-0.000111429
0.000154102
-0.000405234
0.000500062
-0.000834569
0.000785237
-0.00135008
0.000973081
-0.00190488
0.00106436
-0.00245553
0.00106728
-0.00296072
0.000987489
-0.00338022
0.000826811
-0.00367534
0.000587007
-0.00381191
0.000275494
-0.0037652
-8.94296e-05
-0.00352577
-0.000475973
-0.00310546
-0.000838182
-0.0025412
-0.00112179
-0.00189489
-0.0012735
-0.00124714
-0.00125542
-0.000683407
-0.00106118
-0.000273857
-0.000728513
-5.21087e-05
-0.000342755
-3.41964e-05
-0.000173134
0.000327236
-0.000593571
0.000920499
-0.0011792
0.00137086
-0.0018617
0.00165558
-0.00258284
0.00178551
-0.00329086
0.00177529
-0.00393715
0.00163378
-0.00447449
0.00136415
-0.00485753
0.000970051
-0.00504578
0.000463745
-0.00500858
-0.000126629
-0.00473129
-0.000753271
-0.00422226
-0.0013472
-0.00351864
-0.00182541
-0.00268906
-0.00210308
-0.00182988
-0.00211461
-0.0010515
-0.00183955
-0.000454532
-0.00132548
-0.000101952
-0.000695335
-0.000136148
-0.000228247
0.000555483
-0.00076352
0.00145577
-0.00149085
0.00209819
-0.00232362
0.00248835
-0.00319386
0.00265575
-0.00404435
0.00262578
-0.00482264
0.00241207
-0.0054779
0.00201941
-0.00596049
0.00145264
-0.00622412
0.000727374
-0.00623032
-0.000120431
-0.00595437
-0.00102921
-0.00539403
-0.00190755
-0.00457828
-0.00264115
-0.00357536
-0.003106
-0.00249457
-0.0031954
-0.0014756
-0.00285851
-0.000660889
-0.0021402
-0.00015658
-0.00119964
-0.000292729
-0.000274724
0.000830207
-0.000908013
0.00208906
-0.00175726
0.00294744
-0.00272029
0.00345138
-0.00372169
0.00365715
-0.00470141
0.00360551
-0.00560622
0.00331688
-0.00638451
0.0027977
-0.00698429
0.00205242
-0.00735376
0.00109685
-0.00744482
-2.93796e-05
-0.00721764
-0.00125639
-0.00665207
-0.00247311
-0.00575947
-0.00353376
-0.00459815
-0.00426732
-0.00328467
-0.00450888
-0.00199071
-0.00415247
-0.000914023
-0.00321688
-0.000223233
-0.00189043
-0.000515961
-0.000310642
0.00114085
-0.00102067
0.00279909
-0.00196653
0.0038933
-0.00303431
0.00451916
-0.0041439
0.00476674
-0.00523508
0.00469668
-0.00625663
0.00433844
-0.00715905
0.00370012
-0.00789039
0.00278376
-0.00839475
0.00160121
-0.00861294
0.00018881
-0.00848877
-0.00138057
-0.00797682
-0.00298506
-0.00706066
-0.00444992
-0.00577554
-0.00555244
-0.0042329
-0.00605151
-0.00263248
-0.00575289
-0.00123938
-0.00460999
-0.000311368
-0.00281845
-0.000827329
-0.00033409
0.00147494
-0.00109534
0.00356034
-0.00210661
0.00490457
-0.00324635
0.0056589
-0.00443245
0.00595284
-0.00560699
0.00587123
-0.00672356
0.00545501
-0.00773789
0.00471444
-0.00860141
0.00364728
-0.00925726
0.00225707
-0.00963862
0.00057017
-0.00967158
-0.00134761
-0.00928336
-0.00337328
-0.00842039
-0.0053129
-0.00707851
-0.00689432
-0.00534303
-0.00778699
-0.00342526
-0.00767067
-0.00166153
-0.00637372
-0.000431533
-0.00404844
-0.00125886
-0.000343814
0.00181875
-0.00112751
0.00434403
-0.00216746
0.00594452
-0.00333811
0.00682955
-0.00455767
0.0071724
-0.00577274
0.00708629
-0.00694435
0.00662662
-0.00803695
0.00580704
-0.00900986
0.00462019
-0.00981076
0.00305797
-0.0103711
0.00113051
-0.0106049
-0.00111381
-0.010414
-0.00356423
-0.00970258
-0.00602426
-0.00841105
-0.00818586
-0.00656978
-0.00962826
-0.00436826
-0.00987219
-0.00219905
-0.00854294
-0.000595076
-0.00565241
-0.00185394
-0.000340369
0.00215912
-0.00111701
0.00512067
-0.0021452
0.00697271
-0.00329792
0.00798227
-0.00449567
0.00837015
-0.00569149
0.00828211
-0.00685639
0.00779152
-0.00796713
0.00691778
-0.00899617
0.00564923
-0.00990306
0.00396486
-0.0106268
0.00185429
-0.0110795
-0.000661129
-0.0111474
-0.00349635
-0.0106954
-0.00647626
-0.00959786
-0.0092834
-0.0077997
-0.0114264
-0.00541834
-0.0122536
-0.00285687
-0.0111044
-0.000813742
-0.00769553
-0.00266768
-0.000327666
0.00248679
-0.00107159
0.0058646
-0.00204747
0.00794858
-0.00312801
0.00906281
-0.00423789
0.00948004
-0.00533882
0.00938303
-0.00641433
0.00886704
-0.00745695
0.00796039
-0.00845734
0.00664962
-0.00939456
0.00490208
-0.0102266
0.00268637
-0.0108748
-1.29396e-05
-0.0112316
-0.00313961
-0.0111327
-0.0065751
-0.0103899
-0.0100262
-0.00884046
-0.0129758
-0.00647147
-0.0146225
-0.00361407
-0.0139618
-0.00109815
-0.0102115
-0.00376583
-0.000315033
0.00280182
-0.00101109
0.00656066
-0.00189916
0.00883666
-0.00285155
0.0100152
-0.00380019
0.0104287
-0.00471891
0.0103018
-0.00560684
0.00975497
-0.00647515
0.0088287
-0.00733647
0.00751094
-0.00819524
0.00576086
-0.00903669
0.00352782
-0.00981865
0.000769021
-0.0104389
-0.00251936
-0.0107419
-0.0062721
-0.0104958
-0.0102723
-0.00942924
-0.0140424
-0.00735025
-0.0167015
-0.00440746
-0.0169046
-0.00145373
-0.0131652
-0.00521955
-0.000320207
0.00312203
-0.000972181
0.00721263
-0.00174729
0.00961177
-0.00251721
0.0107851
-0.00322757
0.011139
-0.00387076
0.0109449
-0.00446587
0.0103501
-0.00504536
0.00940819
-0.00564568
0.00811126
-0.00629931
0.00641449
-0.00702542
0.00425393
-0.00781743
0.00156104
-0.00861962
-0.00171717
-0.00930392
-0.0055878
-0.00963587
-0.00994038
-0.00926586
-0.0144124
-0.00780715
-0.0181602
-0.0051145
-0.0195973
-0.00187242
-0.0164073
-0.00709197
-0.000374151
0.00349618
-0.00101347
0.00785195
-0.00166286
0.0102612
-0.00219691
0.0113192
-0.0025884
0.0115305
-0.00285949
0.011216
-0.00305581
0.0105464
-0.00323339
0.00958578
-0.00345206
0.00832993
-0.0037706
0.00673303
-0.00424095
0.00472428
-0.00489831
0.0022184
-0.005742
-0.000873487
-0.00670439
-0.00462541
-0.00759932
-0.00904545
-0.00806215
-0.0139496
-0.00754708
-0.0186753
-0.0055425
-0.0216018
-0.00231877
-0.019631
-0.00941074
-0.000529544
0.00402573
-0.001219
0.00854141
-0.0017328
0.010775
-0.0019659
0.0115523
-0.00194426
0.0115089
-0.00173774
0.0110095
-0.00142728
0.0102359
-0.00109462
0.00925311
-0.000820525
0.00805584
-0.000685055
0.00659756
-0.000766529
0.00480575
-0.00113753
0.0025894
-0.00185363
-0.000157382
-0.00292598
-0.00355306
-0.00426541
-0.00770602
-0.00557827
-0.0126367
-0.0062557
-0.0179979
-0.0054261
-0.0224314
-0.00270922
-0.0223479
-0.01212
-0.000868833
0.00489456
-0.00168446
0.00935703
-0.00201406
0.0111046
-0.0018282
0.0113664
-0.00125358
0.0109343
-0.000433313
0.0101893
0.00050688
0.00929575
0.00145942
0.00830057
0.0023271
0.00718816
0.00301606
0.0059086
0.00343065
0.00439116
0.00347134
0.00254871
0.00303652
0.000277446
0.00203851
-0.00255505
0.000443311
-0.00611082
-0.00161064
-0.0105828
-0.00360143
-0.0160071
-0.00441562
-0.0216172
-0.00288092
-0.0238826
-0.0150009
-0.00149482
0.00638938
-0.00241149
0.0102737
-0.00233145
0.0110245
-0.0014518
0.0104867
-7.71184e-05
0.00955958
0.00155212
0.00856001
0.00326541
0.00758245
0.00493824
0.00662774
0.00646882
0.00565758
0.00776164
0.00461578
0.00871657
0.00343623
0.00922152
0.00204375
0.00914631
0.00035266
0.00834881
-0.00175755
0.00668279
-0.00444481
0.00408814
-0.00798812
0.000840331
-0.0127593
-0.00200542
-0.0187715
-0.00250301
-0.023385
-0.0175039
-0.00234104
0.00873042
-0.00282004
0.0107527
-0.0015857
0.00979019
0.000573352
0.00832769
0.00312058
0.00701235
0.00575705
0.00592354
0.00831649
0.00502301
0.0106978
0.00424639
0.0128251
0.00353036
0.0146241
0.00281672
0.0160097
0.00205062
0.0168761
0.00117737
0.0170871
0.000141683
0.0164803
-0.00115078
0.0148414
-0.00280588
0.011935
-0.00508176
0.0076495
-0.00847375
0.00261181
-0.0137338
-0.000908613
-0.0198646
-0.0184125
-0.00200261
0.010733
0.000357664
0.00839243
0.00431892
0.00582894
0.00833366
0.00431295
0.0120914
0.0032546
0.0154935
0.00252141
0.0185175
0.00199909
0.0211638
0.00160004
0.0234274
0.00126679
0.0252845
0.000959629
0.0266869
0.000648244
0.0275558
0.000308473
0.0277818
-8.43582e-05
0.0272128
-0.000581812
0.0256272
-0.00122028
0.0226955
-0.00215007
0.017951
-0.00372917
0.0109499
-0.00673276
0.00302458
-0.0119392
-0.0153879
0.010733
0.0191255
0.0249544
0.0292673
0.0325219
0.0350434
0.0370424
0.0386425
0.0399093
0.0408689
0.0415171
0.0418256
0.0417412
0.0411594
0.0399392
0.0377891
0.0340599
0.0273272
0.0153879
)
;

boundaryField
{
    movingWall
    {
        type            calculated;
        value           uniform 0;
    }
    fixedWalls
    {
        type            calculated;
        value           uniform 0;
    }
    frontAndBack
    {
        type            empty;
    }
}


// ************************************************************************* //
