/*--------------------------------*- C++ -*----------------------------------*\
  =========                 |
  \\      /  F ield         | OpenFOAM: The Open Source CFD Toolbox
   \\    /   O peration     | Website:  https://openfoam.org
    \\  /    A nd           | Version:  13
     \\/     M anipulation  |
\*---------------------------------------------------------------------------*/
FoamFile
{
    format      ascii;
    class       volVectorField;
    location    "20";
    object      U;
}
// * * * * * * * * * * * * * * * * * * * * * * * * * * * * * * * * * * * * * //

dimensions      [0 1 -1 0 0 0 0];

internalField   nonuniform List<vector> 
400
(
(0.00021352 -0.000214008 0)
(-9.37028e-05 -1.49397e-05 0)
(-0.00151392 0.000202306 0)
(-0.00376238 0.000340523 0)
(-0.00651298 0.000413176 0)
(-0.00947035 0.0004414 0)
(-0.0123849 0.000435723 0)
(-0.0150237 0.000395647 0)
(-0.0171469 0.000314669 0)
(-0.0185083 0.000187235 0)
(-0.0188817 1.56966e-05 0)
(-0.0181114 -0.00018695 0)
(-0.0161715 -0.00038876 0)
(-0.0132165 -0.000547866 0)
(-0.00960316 -0.000620049 0)
(-0.00585999 -0.000573079 0)
(-0.0025953 -0.000400796 0)
(-0.000344187 -0.000134419 0)
(0.000585963 0.000143736 0)
(0.000320203 0.000307035 0)
(2.33916e-06 9.10353e-05 0)
(-0.00201754 0.00187299 0)
(-0.00641561 0.00366679 0)
(-0.012547 0.00490593 0)
(-0.019697 0.00556019 0)
(-0.027211 0.00569977 0)
(-0.0344852 0.00537495 0)
(-0.04094 0.00459328 0)
(-0.0459984 0.00334601 0)
(-0.0491053 0.00165288 0)
(-0.0497918 -0.000394255 0)
(-0.0477679 -0.00260514 0)
(-0.0430329 -0.00468669 0)
(-0.0359654 -0.00628201 0)
(-0.0273478 -0.00704416 0)
(-0.0183043 -0.00674013 0)
(-0.010123 -0.00535708 0)
(-0.00396726 -0.00317987 0)
(-0.000522632 -0.000840747 0)
(0.000244794 0.000614713 0)
(-0.000277785 0.00168025 0)
(-0.00438952 0.00643466 0)
(-0.0118349 0.0106149 0)
(-0.0215377 0.01344 0)
(-0.032467 0.0148669 0)
(-0.0437327 0.0150132 0)
(-0.0544947 0.0139666 0)
(-0.0639391 0.011751 0)
(-0.0712676 0.00838185 0)
(-0.0757317 0.00395569 0)
(-0.0767155 -0.00126591 0)
(-0.0738483 -0.00680628 0)
(-0.0671308 -0.0119822 0)
(-0.0570412 -0.0159804 0)
(-0.0445813 -0.0180158 0)
(-0.0312218 -0.017552 0)
(-0.0187057 -0.014539 0)
(-0.00869204 -0.00958839 0)
(-0.00231742 -0.00402874 0)
(8.95673e-05 6.77744e-05 0)
(-0.000532152 0.0045479 0)
(-0.00668535 0.0136241 0)
(-0.0170597 0.0208348 0)
(-0.0300752 0.025514 0)
(-0.0443868 0.0277347 0)
(-0.05893 0.0277057 0)
(-0.0727141 0.025565 0)
(-0.0847832 0.0213606 0)
(-0.0942022 0.0151474 0)
(-0.100092 0.0071244 0)
(-0.101714 -0.00224209 0)
(-0.0985845 -0.0121474 0)
(-0.0906096 -0.0214526 0)
(-0.0782238 -0.0288 0)
(-0.0624836 -0.0328446 0)
(-0.0450754 -0.0326056 0)
(-0.0281559 -0.0278742 0)
(-0.0139617 -0.0195433 0)
(-0.00428176 -0.00969253 0)
(-3.65647e-05 -0.00145226 0)
(-0.000750533 0.00859612 0)
(-0.00874635 0.0232513 0)
(-0.0217858 0.0340496 0)
(-0.0377954 0.0407565 0)
(-0.0551379 0.0437326 0)
(-0.0726205 0.0433555 0)
(-0.0891685 0.0398409 0)
(-0.103757 0.0332676 0)
(-0.115375 0.0237266 0)
(-0.123047 0.011508 0)
(-0.125899 -0.00273435 0)
(-0.123268 -0.0178824 0)
(-0.114841 -0.0323329 0)
(-0.100846 -0.0441214 0)
(-0.0822249 -0.0512014 0)
(-0.0607658 -0.0519265 0)
(-0.0390438 -0.0456818 0)
(-0.0200387 -0.0334711 0)
(-0.00647942 -0.0181254 0)
(-0.000142572 -0.00399517 0)
(-0.000930284 0.0136691 0)
(-0.0104877 0.0350281 0)
(-0.0258136 0.0499242 0)
(-0.0444076 0.058823 0)
(-0.0643891 0.0625442 0)
(-0.0844846 0.061726 0)
(-0.103594 0.0566992 0)
(-0.120685 0.0475762 0)
(-0.134724 0.0344599 0)
(-0.144663 0.0176829 0)
(-0.149481 -0.00198159 0)
(-0.148266 -0.0231606 0)
(-0.140364 -0.0438365 0)
(-0.125621 -0.0613981 0)
(-0.104663 -0.0729324 0)
(-0.0792048 -0.0758156 0)
(-0.0521888 -0.0686215 0)
(-0.0274983 -0.0521294 0)
(-0.00917835 -0.0298653 0)
(-0.000263156 -0.0077134 0)
(-0.00106551 0.0195747 0)
(-0.0118349 0.0485724 0)
(-0.0289619 0.0680102 0)
(-0.0496163 0.0792687 0)
(-0.0717395 0.0837798 0)
(-0.0940265 0.0825358 0)
(-0.115407 0.0760247 0)
(-0.134901 0.0643917 0)
(-0.151506 0.047713 0)
(-0.164145 0.0262876 0)
(-0.17165 0.000900419 0)
(-0.172837 -0.0269532 0)
(-0.16663 -0.0549303 0)
(-0.152316 -0.0797924 0)
(-0.129966 -0.0976178 0)
(-0.10094 -0.104435 0)
(-0.0683416 -0.0974225 0)
(-0.0370053 -0.0765373 0)
(-0.0127312 -0.0457671 0)
(-0.00044271 -0.0129357 0)
(-0.00114862 0.0260812 0)
(-0.0127163 0.0634145 0)
(-0.031056 0.0877435 0)
(-0.053114 0.101518 0)
(-0.0767219 0.106908 0)
(-0.10059 0.105351 0)
(-0.12373 0.0975358 0)
(-0.145271 0.0836444 0)
(-0.164311 0.0636831 0)
(-0.179807 0.0378271 0)
(-0.190519 0.00673808 0)
(-0.195015 -0.0281456 0)
(-0.191769 -0.0643174 0)
(-0.179411 -0.0980311 0)
(-0.157197 -0.12431 0)
(-0.125741 -0.137489 0)
(-0.0878674 -0.132617 0)
(-0.0491489 -0.107853 0)
(-0.0175276 -0.0670066 0)
(-0.000736433 -0.0201952 0)
(-0.00117539 0.032922 0)
(-0.013085 0.0790043 0)
(-0.031963 0.108441 0)
(-0.0546315 0.124834 0)
(-0.0788723 0.131193 0)
(-0.103451 0.12948 0)
(-0.127507 0.120642 0)
(-0.150342 0.10491 0)
(-0.171228 0.0821911 0)
(-0.189262 0.0524524 0)
(-0.203247 0.0160895 0)
(-0.211626 -0.0257065 0)
(-0.212515 -0.0705194 0)
(-0.203875 -0.11435 0)
(-0.183953 -0.151305 0)
(-0.152166 -0.173845 0)
(-0.110378 -0.174121 0)
(-0.0642557 -0.147093 0)
(-0.02397 -0.0950021 0)
(-0.00122018 -0.0302468 0)
(-0.0011525 0.0398175 0)
(-0.0129573 0.0947436 0)
(-0.03166 0.129319 0)
(-0.054034 0.148313 0)
(-0.0778574 0.15565 0)
(-0.101986 0.153902 0)
(-0.125728 0.144336 0)
(-0.148616 0.12727 0)
(-0.170187 0.102505 0)
(-0.189797 0.0697506 0)
(-0.206461 0.0290206 0)
(-0.218698 -0.0189427 0)
(-0.224483 -0.0720983 0)
(-0.221259 -0.126611 0)
(-0.206225 -0.176064 0)
(-0.17722 -0.211193 0)
(-0.134316 -0.220703 0)
(-0.0821166 -0.194649 0)
(-0.0324311 -0.131223 0)
(-0.00200736 -0.0440833 0)
(-0.00110793 0.0465256 0)
(-0.0124661 0.110055 0)
(-0.0303243 0.149547 0)
(-0.0514462 0.17091 0)
(-0.0736389 0.179058 0)
(-0.0958886 0.177255 0)
(-0.11772 0.167167 0)
(-0.138953 0.149254 0)
(-0.159468 0.123249 0)
(-0.179007 0.0886026 0)
(-0.196983 0.0448968 0)
(-0.212217 -0.00771304 0)
(-0.222891 -0.0679975 0)
(-0.22627 -0.132642 0)
(-0.21869 -0.195405 0)
(-0.196293 -0.245927 0)
(-0.156603 -0.26948 0)
(-0.101607 -0.249631 0)
(-0.043147 -0.176822 0)
(-0.00327149 -0.062935 0)
(-0.00110607 0.0529265 0)
(-0.0119274 0.124496 0)
(-0.0284335 0.168339 0)
(-0.0473787 0.191505 0)
(-0.0666302 0.200004 0)
(-0.0853793 0.197888 0)
(-0.103432 0.187297 0)
(-0.120951 0.168904 0)
(-0.138221 0.142436 0)
(-0.155457 0.107135 0)
(-0.172603 0.0621618 0)
(-0.189158 0.0069998 0)
(-0.203745 -0.0580586 0)
(-0.213834 -0.130824 0)
(-0.215544 -0.206057 0)
(-0.203584 -0.273435 0)
(-0.172567 -0.315677 0)
(-0.120277 -0.309111 0)
(-0.0559898 -0.232015 0)
(-0.0052673 -0.0882198 0)
(-0.00127397 0.059157 0)
(-0.0119296 0.137911 0)
(-0.0268658 0.185065 0)
(-0.0428211 0.208984 0)
(-0.0577856 0.216975 0)
(-0.0713052 0.213974 0)
(-0.0835773 0.202657 0)
(-0.0951743 0.183964 0)
(-0.106826 0.157681 0)
(-0.119258 0.122929 0)
(-0.133029 0.078527 0)
(-0.14834 0.0233279 0)
(-0.164662 -0.0432799 0)
(-0.180281 -0.1207 0)
(-0.191701 -0.205502 0)
(-0.193032 -0.288894 0)
(-0.176333 -0.35294 0)
(-0.134118 -0.367603 0)
(-0.0700805 -0.295216 0)
(-0.00832703 -0.121375 0)
(-0.00184995 0.0658165 0)
(-0.0134608 0.150611 0)
(-0.026977 0.199344 0)
(-0.0392387 0.222285 0)
(-0.0485153 0.228404 0)
(-0.0549929 0.223613 0)
(-0.0594396 0.211117 0)
(-0.0629209 0.192118 0)
(-0.0666221 0.1665 0)
(-0.0717502 0.133345 0)
(-0.0794404 0.0912691 0)
(-0.09062 0.0386769 0)
(-0.105731 -0.0259341 0)
(-0.124257 -0.103469 0)
(-0.143925 -0.192887 0)
(-0.159467 -0.288449 0)
(-0.161637 -0.374315 0)
(-0.137669 -0.41714 0)
(-0.0832653 -0.362071 0)
(-0.012783 -0.163489 0)
(-0.00328693 0.0743287 0)
(-0.0180863 0.163574 0)
(-0.0305675 0.211065 0)
(-0.0382892 0.230352 0)
(-0.0401789 0.232651 0)
(-0.0375564 0.224858 0)
(-0.0320192 0.210578 0)
(-0.0252229 0.191161 0)
(-0.0187954 0.166548 0)
(-0.014343 0.135816 0)
(-0.013456 0.0975095 0)
(-0.0176693 0.0498075 0)
(-0.0283303 -0.00934025 0)
(-0.046251 -0.0820273 0)
(-0.0709925 -0.169584 0)
(-0.0992515 -0.270371 0)
(-0.1226 -0.373673 0)
(-0.12438 -0.448092 0)
(-0.0915524 -0.424647 0)
(-0.0187138 -0.214579 0)
(-0.00636433 0.0873936 0)
(-0.028016 0.17825 0)
(-0.0392901 0.219856 0)
(-0.0405917 0.231575 0)
(-0.0323437 0.227547 0)
(-0.0177837 0.215405 0)
(0.000349824 0.198785 0)
(0.0197364 0.178922 0)
(0.0383619 0.155668 0)
(0.0543487 0.128077 0)
(0.0658233 0.0947071 0)
(0.0708513 0.0537334 0)
(0.0673985 0.00296865 0)
(0.0535071 -0.060262 0)
(0.0276459 -0.138968 0)
(-0.00978641 -0.235623 0)
(-0.0537781 -0.347017 0)
(-0.0866237 -0.450317 0)
(-0.0885234 -0.470843 0)
(-0.0253078 -0.272259 0)
(-0.0125249 0.110609 0)
(-0.0452228 0.196704 0)
(-0.0514594 0.224532 0)
(-0.0408856 0.22311 0)
(-0.0170514 0.209821 0)
(0.0139122 0.192186 0)
(0.0479962 0.1731 0)
(0.0823592 0.153187 0)
(0.114826 0.131968 0)
(0.143489 0.108395 0)
(0.166437 0.0810868 0)
(0.181598 0.0483888 0)
(0.18655 0.00832773 0)
(0.178625 -0.0416877 0)
(0.154744 -0.105188 0)
(0.11245 -0.187483 0)
(0.051194 -0.293352 0)
(-0.014322 -0.414484 0)
(-0.0643371 -0.485118 0)
(-0.0295909 -0.330458 0)
(-0.0216114 0.148419 0)
(-0.0652301 0.213121 0)
(-0.0493977 0.215065 0)
(-0.0130393 0.195084 0)
(0.0358764 0.171607 0)
(0.0887201 0.149596 0)
(0.141257 0.129841 0)
(0.191045 0.111752 0)
(0.236449 0.0943066 0)
(0.27605 0.0763383 0)
(0.308307 0.0566095 0)
(0.331379 0.0337896 0)
(0.342828 0.00635164 0)
(0.339844 -0.0276579 0)
(0.318514 -0.0712328 0)
(0.274652 -0.130263 0)
(0.202168 -0.214987 0)
(0.107938 -0.334973 0)
(-0.00320731 -0.451461 0)
(-0.0232656 -0.378734 0)
(-0.027472 0.229337 0)
(-0.0364928 0.223121 0)
(0.0465598 0.176951 0)
(0.127044 0.13874 0)
(0.205595 0.109498 0)
(0.27748 0.0878735 0)
(0.341779 0.071576 0)
(0.39847 0.0585804 0)
(0.447606 0.0473861 0)
(0.488944 0.0368464 0)
(0.521785 0.0260116 0)
(0.544914 0.0140248 0)
(0.556389 7.39793e-06 0)
(0.553882 -0.0170349 0)
(0.53336 -0.0390864 0)
(0.490585 -0.0704546 0)
(0.415319 -0.120933 0)
(0.304903 -0.213375 0)
(0.12588 -0.348318 0)
(0.0236677 -0.37879 0)
(0.21444 0.135797 0)
(0.285138 0.0984499 0)
(0.444656 0.0569154 0)
(0.547914 0.0365839 0)
(0.621661 0.0241689 0)
(0.678247 0.0163204 0)
(0.722819 0.0113357 0)
(0.758409 0.00800668 0)
(0.786848 0.00557323 0)
(0.809032 0.00357127 0)
(0.825144 0.00169422 0)
(0.83486 -0.000271172 0)
(0.837311 -0.00250652 0)
(0.831189 -0.00505098 0)
(0.813547 -0.0085023 0)
(0.781941 -0.0135056 0)
(0.724081 -0.0231768 0)
(0.635276 -0.0406016 0)
(0.43131 -0.0912948 0)
(0.270899 -0.153523 0)
)
;

boundaryField
{
    movingWall
    {
        type            fixedValue;
        value           uniform (1 0 0);
    }
    fixedWalls
    {
        type            fixedValue;
        value           uniform (0 0 0);
    }
    frontAndBack
    {
        type            empty;
    }
}


// ************************************************************************* //
