/*--------------------------------*- C++ -*----------------------------------*\
  =========                 |
  \\      /  F ield         | OpenFOAM: The Open Source CFD Toolbox
   \\    /   O peration     | Website:  https://openfoam.org
    \\  /    A nd           | Version:  13
     \\/     M anipulation  |
\*---------------------------------------------------------------------------*/
FoamFile
{
    format      ascii;
    class       volVectorField;
    location    "20";
    object      U_0;
}
// * * * * * * * * * * * * * * * * * * * * * * * * * * * * * * * * * * * * * //

dimensions      [0 1 -1 0 0 0 0];

internalField   nonuniform List<vector> 
400
(
(0.000213519 -0.000214008 0)
(-9.37049e-05 -1.49393e-05 0)
(-0.00151392 0.000202306 0)
(-0.00376238 0.000340523 0)
(-0.00651298 0.000413175 0)
(-0.00947034 0.000441399 0)
(-0.0123849 0.000435724 0)
(-0.0150237 0.000395648 0)
(-0.0171469 0.000314669 0)
(-0.0185083 0.000187234 0)
(-0.0188817 1.56963e-05 0)
(-0.0181114 -0.000186949 0)
(-0.0161715 -0.000388759 0)
(-0.0132165 -0.000547865 0)
(-0.00960315 -0.000620049 0)
(-0.00585999 -0.000573078 0)
(-0.0025953 -0.000400796 0)
(-0.000344189 -0.000134418 0)
(0.000585962 0.000143736 0)
(0.000320203 0.000307035 0)
(2.33917e-06 9.10345e-05 0)
(-0.00201753 0.00187299 0)
(-0.00641561 0.00366678 0)
(-0.012547 0.00490593 0)
(-0.019697 0.00556019 0)
(-0.027211 0.00569976 0)
(-0.0344852 0.00537494 0)
(-0.0409399 0.00459328 0)
(-0.0459984 0.00334601 0)
(-0.0491052 0.00165287 0)
(-0.0497918 -0.000394253 0)
(-0.0477679 -0.00260513 0)
(-0.0430328 -0.00468669 0)
(-0.0359654 -0.006282 0)
(-0.0273477 -0.00704416 0)
(-0.0183043 -0.00674012 0)
(-0.010123 -0.00535708 0)
(-0.00396726 -0.00317987 0)
(-0.000522634 -0.000840747 0)
(0.000244794 0.000614712 0)
(-0.000277785 0.00168025 0)
(-0.00438951 0.00643465 0)
(-0.0118349 0.0106149 0)
(-0.0215377 0.01344 0)
(-0.0324669 0.0148669 0)
(-0.0437327 0.0150131 0)
(-0.0544946 0.0139666 0)
(-0.0639391 0.011751 0)
(-0.0712675 0.00838185 0)
(-0.0757316 0.00395569 0)
(-0.0767154 -0.00126591 0)
(-0.0738483 -0.00680626 0)
(-0.0671307 -0.0119822 0)
(-0.0570412 -0.0159804 0)
(-0.0445812 -0.0180157 0)
(-0.0312218 -0.017552 0)
(-0.0187057 -0.014539 0)
(-0.00869204 -0.00958838 0)
(-0.00231742 -0.00402874 0)
(8.9567e-05 6.77742e-05 0)
(-0.000532153 0.0045479 0)
(-0.00668534 0.013624 0)
(-0.0170597 0.0208348 0)
(-0.0300752 0.0255139 0)
(-0.0443867 0.0277346 0)
(-0.0589299 0.0277057 0)
(-0.072714 0.0255649 0)
(-0.0847831 0.0213605 0)
(-0.0942021 0.0151474 0)
(-0.100092 0.0071244 0)
(-0.101714 -0.00224208 0)
(-0.0985844 -0.0121473 0)
(-0.0906095 -0.0214526 0)
(-0.0782238 -0.0288 0)
(-0.0624835 -0.0328446 0)
(-0.0450753 -0.0326056 0)
(-0.0281559 -0.0278742 0)
(-0.0139617 -0.0195433 0)
(-0.00428176 -0.00969252 0)
(-3.65648e-05 -0.00145225 0)
(-0.000750533 0.00859611 0)
(-0.00874634 0.0232513 0)
(-0.0217858 0.0340496 0)
(-0.0377954 0.0407565 0)
(-0.0551378 0.0437325 0)
(-0.0726204 0.0433555 0)
(-0.0891684 0.0398408 0)
(-0.103757 0.0332676 0)
(-0.115375 0.0237266 0)
(-0.123047 0.011508 0)
(-0.125899 -0.00273434 0)
(-0.123268 -0.0178824 0)
(-0.114841 -0.0323329 0)
(-0.100846 -0.0441214 0)
(-0.0822248 -0.0512014 0)
(-0.0607657 -0.0519265 0)
(-0.0390438 -0.0456818 0)
(-0.0200387 -0.0334711 0)
(-0.00647942 -0.0181254 0)
(-0.000142572 -0.00399517 0)
(-0.000930284 0.0136691 0)
(-0.0104877 0.035028 0)
(-0.0258135 0.0499241 0)
(-0.0444075 0.058823 0)
(-0.064389 0.0625441 0)
(-0.0844845 0.0617259 0)
(-0.103594 0.0566992 0)
(-0.120685 0.0475762 0)
(-0.134724 0.0344599 0)
(-0.144662 0.0176829 0)
(-0.149481 -0.00198157 0)
(-0.148266 -0.0231605 0)
(-0.140364 -0.0438365 0)
(-0.12562 -0.061398 0)
(-0.104663 -0.0729323 0)
(-0.0792048 -0.0758155 0)
(-0.0521888 -0.0686215 0)
(-0.0274983 -0.0521294 0)
(-0.00917835 -0.0298653 0)
(-0.000263155 -0.0077134 0)
(-0.00106551 0.0195746 0)
(-0.0118349 0.0485724 0)
(-0.0289618 0.0680101 0)
(-0.0496163 0.0792686 0)
(-0.0717394 0.0837797 0)
(-0.0940264 0.0825357 0)
(-0.115407 0.0760246 0)
(-0.134901 0.0643917 0)
(-0.151506 0.047713 0)
(-0.164145 0.0262876 0)
(-0.17165 0.000900445 0)
(-0.172837 -0.0269531 0)
(-0.16663 -0.0549302 0)
(-0.152316 -0.0797923 0)
(-0.129966 -0.0976177 0)
(-0.10094 -0.104435 0)
(-0.0683415 -0.0974224 0)
(-0.0370052 -0.0765373 0)
(-0.0127311 -0.0457671 0)
(-0.00044271 -0.0129357 0)
(-0.00114862 0.0260812 0)
(-0.0127163 0.0634144 0)
(-0.031056 0.0877434 0)
(-0.053114 0.101517 0)
(-0.0767218 0.106908 0)
(-0.10059 0.105351 0)
(-0.123729 0.0975357 0)
(-0.145271 0.0836444 0)
(-0.164311 0.063683 0)
(-0.179807 0.0378271 0)
(-0.190519 0.00673811 0)
(-0.195014 -0.0281455 0)
(-0.191769 -0.0643173 0)
(-0.179411 -0.098031 0)
(-0.157197 -0.12431 0)
(-0.125741 -0.137489 0)
(-0.0878673 -0.132617 0)
(-0.0491488 -0.107853 0)
(-0.0175276 -0.0670066 0)
(-0.000736433 -0.0201952 0)
(-0.00117539 0.0329219 0)
(-0.013085 0.0790042 0)
(-0.031963 0.108441 0)
(-0.0546314 0.124834 0)
(-0.0788722 0.131193 0)
(-0.103451 0.129479 0)
(-0.127507 0.120642 0)
(-0.150341 0.10491 0)
(-0.171228 0.0821911 0)
(-0.189262 0.0524524 0)
(-0.203247 0.0160895 0)
(-0.211626 -0.0257064 0)
(-0.212515 -0.0705193 0)
(-0.203875 -0.11435 0)
(-0.183953 -0.151305 0)
(-0.152166 -0.173845 0)
(-0.110378 -0.174121 0)
(-0.0642557 -0.147092 0)
(-0.02397 -0.095002 0)
(-0.00122018 -0.0302468 0)
(-0.0011525 0.0398175 0)
(-0.0129573 0.0947435 0)
(-0.03166 0.129319 0)
(-0.054034 0.148313 0)
(-0.0778574 0.15565 0)
(-0.101986 0.153902 0)
(-0.125728 0.144336 0)
(-0.148616 0.12727 0)
(-0.170187 0.102505 0)
(-0.189797 0.0697506 0)
(-0.206461 0.0290206 0)
(-0.218698 -0.0189427 0)
(-0.224483 -0.0720982 0)
(-0.221259 -0.126611 0)
(-0.206225 -0.176064 0)
(-0.17722 -0.211193 0)
(-0.134316 -0.220703 0)
(-0.0821165 -0.194649 0)
(-0.0324311 -0.131223 0)
(-0.00200736 -0.0440833 0)
(-0.00110793 0.0465255 0)
(-0.0124661 0.110055 0)
(-0.0303243 0.149547 0)
(-0.0514462 0.17091 0)
(-0.0736388 0.179058 0)
(-0.0958886 0.177255 0)
(-0.11772 0.167167 0)
(-0.138953 0.149254 0)
(-0.159468 0.123249 0)
(-0.179007 0.0886026 0)
(-0.196983 0.0448968 0)
(-0.212217 -0.00771298 0)
(-0.222891 -0.0679974 0)
(-0.22627 -0.132642 0)
(-0.21869 -0.195405 0)
(-0.196293 -0.245926 0)
(-0.156603 -0.269479 0)
(-0.101607 -0.249631 0)
(-0.043147 -0.176821 0)
(-0.00327149 -0.062935 0)
(-0.00110607 0.0529264 0)
(-0.0119274 0.124496 0)
(-0.0284336 0.168339 0)
(-0.0473787 0.191505 0)
(-0.0666302 0.200004 0)
(-0.0853793 0.197888 0)
(-0.103432 0.187297 0)
(-0.120951 0.168904 0)
(-0.138221 0.142436 0)
(-0.155457 0.107135 0)
(-0.172603 0.0621618 0)
(-0.189158 0.00699986 0)
(-0.203745 -0.0580585 0)
(-0.213834 -0.130824 0)
(-0.215544 -0.206057 0)
(-0.203584 -0.273434 0)
(-0.172567 -0.315677 0)
(-0.120277 -0.309111 0)
(-0.0559898 -0.232015 0)
(-0.0052673 -0.0882198 0)
(-0.00127397 0.0591569 0)
(-0.0119296 0.137911 0)
(-0.0268658 0.185065 0)
(-0.0428211 0.208984 0)
(-0.0577856 0.216974 0)
(-0.0713052 0.213974 0)
(-0.0835773 0.202657 0)
(-0.0951744 0.183963 0)
(-0.106826 0.157681 0)
(-0.119258 0.122929 0)
(-0.133029 0.0785271 0)
(-0.14834 0.0233279 0)
(-0.164662 -0.0432798 0)
(-0.180281 -0.120699 0)
(-0.191702 -0.205502 0)
(-0.193032 -0.288893 0)
(-0.176333 -0.35294 0)
(-0.134118 -0.367603 0)
(-0.0700804 -0.295216 0)
(-0.00832703 -0.121375 0)
(-0.00184996 0.0658164 0)
(-0.0134608 0.15061 0)
(-0.026977 0.199344 0)
(-0.0392387 0.222284 0)
(-0.0485154 0.228404 0)
(-0.054993 0.223613 0)
(-0.0594397 0.211117 0)
(-0.062921 0.192118 0)
(-0.0666222 0.1665 0)
(-0.0717503 0.133345 0)
(-0.0794405 0.0912692 0)
(-0.0906201 0.0386769 0)
(-0.105731 -0.0259341 0)
(-0.124257 -0.103469 0)
(-0.143926 -0.192886 0)
(-0.159467 -0.288449 0)
(-0.161637 -0.374315 0)
(-0.137669 -0.41714 0)
(-0.0832653 -0.362071 0)
(-0.012783 -0.163489 0)
(-0.00328693 0.0743287 0)
(-0.0180863 0.163574 0)
(-0.0305675 0.211065 0)
(-0.0382892 0.230352 0)
(-0.040179 0.232651 0)
(-0.0375565 0.224858 0)
(-0.0320193 0.210577 0)
(-0.025223 0.191161 0)
(-0.0187956 0.166548 0)
(-0.0143431 0.135816 0)
(-0.0134561 0.0975096 0)
(-0.0176694 0.0498076 0)
(-0.0283304 -0.0093402 0)
(-0.0462511 -0.0820272 0)
(-0.0709925 -0.169584 0)
(-0.0992516 -0.270371 0)
(-0.1226 -0.373673 0)
(-0.12438 -0.448092 0)
(-0.0915525 -0.424647 0)
(-0.0187138 -0.214579 0)
(-0.00636432 0.0873936 0)
(-0.028016 0.17825 0)
(-0.0392902 0.219856 0)
(-0.0405918 0.231575 0)
(-0.0323438 0.227547 0)
(-0.0177838 0.215405 0)
(0.000349706 0.198785 0)
(0.0197363 0.178922 0)
(0.0383618 0.155668 0)
(0.0543485 0.128077 0)
(0.0658232 0.0947071 0)
(0.0708511 0.0537335 0)
(0.0673984 0.00296869 0)
(0.053507 -0.060262 0)
(0.0276459 -0.138968 0)
(-0.00978648 -0.235623 0)
(-0.0537781 -0.347017 0)
(-0.0866237 -0.450317 0)
(-0.0885234 -0.470843 0)
(-0.0253078 -0.272259 0)
(-0.0125249 0.110609 0)
(-0.0452228 0.196704 0)
(-0.0514594 0.224532 0)
(-0.0408856 0.22311 0)
(-0.0170515 0.209821 0)
(0.0139121 0.192186 0)
(0.0479961 0.1731 0)
(0.0823591 0.153187 0)
(0.114826 0.131968 0)
(0.143489 0.108395 0)
(0.166437 0.0810868 0)
(0.181598 0.0483888 0)
(0.18655 0.00832777 0)
(0.178625 -0.0416877 0)
(0.154744 -0.105188 0)
(0.11245 -0.187483 0)
(0.0511939 -0.293352 0)
(-0.0143221 -0.414484 0)
(-0.0643371 -0.485118 0)
(-0.0295909 -0.330458 0)
(-0.0216114 0.148419 0)
(-0.0652301 0.213121 0)
(-0.0493978 0.215065 0)
(-0.0130394 0.195084 0)
(0.0358763 0.171607 0)
(0.08872 0.149596 0)
(0.141257 0.129841 0)
(0.191045 0.111752 0)
(0.236449 0.0943066 0)
(0.27605 0.0763383 0)
(0.308307 0.0566095 0)
(0.331379 0.0337896 0)
(0.342828 0.00635166 0)
(0.339844 -0.0276579 0)
(0.318514 -0.0712327 0)
(0.274652 -0.130263 0)
(0.202168 -0.214987 0)
(0.107938 -0.334973 0)
(-0.00320732 -0.451461 0)
(-0.0232656 -0.378734 0)
(-0.027472 0.229337 0)
(-0.0364928 0.223121 0)
(0.0465598 0.176951 0)
(0.127044 0.13874 0)
(0.205595 0.109498 0)
(0.27748 0.0878735 0)
(0.341779 0.0715759 0)
(0.39847 0.0585804 0)
(0.447606 0.0473861 0)
(0.488944 0.0368464 0)
(0.521785 0.0260116 0)
(0.544914 0.0140248 0)
(0.556389 7.4086e-06 0)
(0.553882 -0.0170349 0)
(0.53336 -0.0390864 0)
(0.490585 -0.0704546 0)
(0.415319 -0.120933 0)
(0.304903 -0.213375 0)
(0.12588 -0.348318 0)
(0.0236677 -0.37879 0)
(0.21444 0.135797 0)
(0.285138 0.0984499 0)
(0.444656 0.0569154 0)
(0.547914 0.0365839 0)
(0.621661 0.0241689 0)
(0.678247 0.0163204 0)
(0.722819 0.0113357 0)
(0.758409 0.00800668 0)
(0.786848 0.00557323 0)
(0.809032 0.00357127 0)
(0.825144 0.00169422 0)
(0.83486 -0.00027117 0)
(0.837311 -0.00250651 0)
(0.831189 -0.00505098 0)
(0.813547 -0.0085023 0)
(0.781941 -0.0135056 0)
(0.724081 -0.0231768 0)
(0.635276 -0.0406016 0)
(0.43131 -0.0912948 0)
(0.270899 -0.153523 0)
)
;

boundaryField
{
    movingWall
    {
        type            calculated;
        value           uniform (1 0 0);
    }
    fixedWalls
    {
        type            calculated;
        value           uniform (0 0 0);
    }
    frontAndBack
    {
        type            empty;
    }
}


// ************************************************************************* //
