/*--------------------------------*- C++ -*----------------------------------*\
  =========                 |
  \\      /  F ield         | OpenFOAM: The Open Source CFD Toolbox
   \\    /   O peration     | Website:  https://openfoam.org
    \\  /    A nd           | Version:  13
     \\/     M anipulation  |
\*---------------------------------------------------------------------------*/
FoamFile
{
    format      ascii;
    class       volScalarField;
    location    "35";
    object      p;
}
// * * * * * * * * * * * * * * * * * * * * * * * * * * * * * * * * * * * * * //

dimensions      [0 2 -2 0 0 0 0];

internalField   nonuniform List<scalar> 
400
(
1.37154e-07
-0.000572385
-0.00121598
-0.00171885
-0.00195918
-0.00188467
-0.00147047
-0.000705514
0.000401317
0.00180598
0.00341471
0.00507503
0.00659106
0.00775112
0.00837982
0.00839565
0.00785537
0.00696893
0.00604804
0.00549436
0.000569985
-2.02867e-05
-0.000569673
-0.000957032
-0.001132
-0.00106196
-0.000725965
-0.000109233
0.000788785
0.00193947
0.00326981
0.00466014
0.00594072
0.00692983
0.00747426
0.00750181
0.00705925
0.00631887
0.00554329
0.00497266
0.00124573
0.00049301
-8.67034e-05
-0.000441358
-0.000606141
-0.000576277
-0.000337265
0.0001326
0.000849704
0.0018069
0.00295487
0.00419182
0.00536446
0.00629385
0.00681928
0.00685293
0.00642079
0.00566822
0.00480897
0.00403722
0.00174062
0.000763729
7.36896e-05
-0.000321925
-0.00053711
-0.000592722
-0.000478218
-0.000160146
0.00040004
0.0012221
0.00228171
0.0034929
0.00470174
0.00570977
0.00631944
0.0063982
0.00593355
0.00505061
0.00394845
0.00284448
0.00179551
0.000595764
-0.000227662
-0.000704795
-0.00101812
-0.00120721
-0.00125934
-0.00112298
-0.000730476
-2.78011e-05
0.000991787
0.00226364
0.00363011
0.0048613
0.00569873
0.00593238
0.00548046
0.00443554
0.00299999
0.00146215
0.00119475
-0.000202983
-0.00116324
-0.00175266
-0.00221137
-0.00259063
-0.00286923
-0.00297116
-0.00279189
-0.00223288
-0.00124401
0.000150578
0.00179291
0.0034199
0.00469029
0.0052748
0.00497197
0.00380574
0.00197907
-0.000103987
-0.000241565
-0.00180004
-0.0028922
-0.00362216
-0.00427765
-0.00491658
-0.00550502
-0.00593748
-0.0060645
-0.00572839
-0.00480686
-0.00328511
-0.00127027
0.000946765
0.00292636
0.00416994
0.00427933
0.00313562
0.000902679
-0.00185619
-0.00265187
-0.00432628
-0.00554118
-0.00643921
-0.00734704
-0.00832766
-0.00933381
-0.0102287
-0.0108112
-0.0108504
-0.0101335
-0.00853893
-0.00610699
-0.00311218
-8.63502e-05
0.00225512
0.00321273
0.00239536
-0.000177297
-0.00375289
-0.00612127
-0.00786162
-0.00918465
-0.0102717
-0.0114829
-0.0128892
-0.0144343
-0.0159528
-0.0171895
-0.0178276
-0.0175353
-0.0160427
-0.013253
-0.00935743
-0.00493596
-0.000941336
0.00150816
0.00155466
-0.00113708
-0.00564673
-0.0106714
-0.0124236
-0.0138274
-0.015102
-0.0166421
-0.0185357
-0.020727
-0.0230304
-0.0251403
-0.0266491
-0.027084
-0.0259775
-0.0230342
-0.018254
-0.0121677
-0.00592207
-0.00114222
0.000603093
-0.00173132
-0.00719508
-0.0162604
-0.0179652
-0.0193956
-0.0208061
-0.0226414
-0.0250233
-0.0279112
-0.0311114
-0.0342774
-0.0369138
-0.0383952
-0.0380066
-0.035284
-0.0298335
-0.0220051
-0.0130064
-0.00495975
-0.000375506
-0.00151597
-0.00772061
-0.0228028
-0.0243899
-0.0257426
-0.0271483
-0.0291434
-0.0319105
-0.0354423
-0.0395493
-0.0438548
-0.0477845
-0.0505799
-0.0513771
-0.0491633
-0.0433939
-0.0339888
-0.0219776
-0.00980587
-0.00102471
0.0002801
-0.00599994
-0.0302224
-0.0315861
-0.0326695
-0.0337919
-0.035668
-0.0385798
-0.0425689
-0.0474549
-0.0528342
-0.0580626
-0.062251
-0.0643105
-0.0630222
-0.0573319
-0.0466928
-0.0317049
-0.014801
-0.000417022
0.00496566
2.28564e-05
-0.0385599
-0.0394893
-0.0399611
-0.0403268
-0.0416349
-0.0443095
-0.0484455
-0.0538592
-0.0601058
-0.0664653
-0.0719293
-0.0752214
-0.0748703
-0.0694213
-0.0578069
-0.040002
-0.0180232
0.0032796
0.0146986
0.0135558
-0.0481747
-0.0481569
-0.0474034
-0.046284
-0.0464119
-0.0483711
-0.0522814
-0.057913
-0.0647393
-0.0719353
-0.0783606
-0.0825612
-0.0828321
-0.0773737
-0.0646452
-0.0439369
-0.0165434
0.0130189
0.0329311
0.0392808
-0.0602349
-0.0579576
-0.0548671
-0.0512134
-0.0494271
-0.0501783
-0.0535203
-0.0590936
-0.06622
-0.0739187
-0.0808794
-0.0854534
-0.0857069
-0.0795198
-0.0649419
-0.0406112
-0.0069788
0.0328169
0.0647938
0.0836769
-0.0774813
-0.0694731
-0.0620874
-0.0545494
-0.0501389
-0.049325
-0.0519044
-0.057261
-0.0644861
-0.0723849
-0.0794399
-0.0837783
-0.0832184
-0.0752829
-0.0576213
-0.0282112
0.0133525
0.0666611
0.115752
0.154807
-0.108926
-0.08504
-0.0697733
-0.0563915
-0.048541
-0.0458811
-0.0476242
-0.052715
-0.0599171
-0.067777
-0.0745523
-0.07814
-0.0761043
-0.0655425
-0.0436432
-0.00744503
0.0447432
0.114933
0.188078
0.263281
-0.168693
-0.100746
-0.0730931
-0.0522881
-0.0413102
-0.0376997
-0.039442
-0.0448654
-0.0524157
-0.0604469
-0.0670739
-0.0700478
-0.0666875
-0.0537884
-0.0278898
0.0154099
0.0800716
0.17276
0.285855
0.445985
-0.402754
-0.139031
-0.0734591
-0.0447301
-0.0305718
-0.0266175
-0.0290856
-0.0353735
-0.043654
-0.0522073
-0.059124
-0.0621455
-0.0586175
-0.045214
-0.0174508
0.0310787
0.108496
0.236657
0.427487
0.79368
)
;

boundaryField
{
    movingWall
    {
        type            zeroGradient;
    }
    fixedWalls
    {
        type            zeroGradient;
    }
    frontAndBack
    {
        type            empty;
    }
}


// ************************************************************************* //
