/*--------------------------------*- C++ -*----------------------------------*\
  =========                 |
  \\      /  F ield         | OpenFOAM: The Open Source CFD Toolbox
   \\    /   O peration     | Website:  https://openfoam.org
    \\  /    A nd           | Version:  13
     \\/     M anipulation  |
\*---------------------------------------------------------------------------*/
FoamFile
{
    format      ascii;
    class       volScalarField;
    location    "25";
    object      p;
}
// * * * * * * * * * * * * * * * * * * * * * * * * * * * * * * * * * * * * * //

dimensions      [0 2 -2 0 0 0 0];

internalField   nonuniform List<scalar> 
400
(
8.55822e-07
-0.000571561
-0.00121513
-0.00171797
-0.00195829
-0.00188376
-0.00146953
-0.000704558
0.000402274
0.00180692
0.00341564
0.00507596
0.00659198
0.00775204
0.00838076
0.00839661
0.00785635
0.00696994
0.00604906
0.00549539
0.000570782
-1.94708e-05
-0.000568834
-0.000956161
-0.00113111
-0.00106106
-0.00072505
-0.000108297
0.000789735
0.00194042
0.00327076
0.00466109
0.00594166
0.00693078
0.00747522
0.00750279
0.00706025
0.0063199
0.00554433
0.00497371
0.00124652
0.000493808
-8.58921e-05
-0.000440516
-0.000605269
-0.000575384
-0.000336354
0.000133533
0.000850657
0.00180787
0.00295583
0.00419278
0.00536543
0.00629482
0.00682026
0.00685392
0.0064218
0.00566926
0.00481003
0.00403828
0.00174139
0.000764523
7.44929e-05
-0.000321101
-0.000536252
-0.00059183
-0.000477296
-0.000159196
0.000401017
0.0012231
0.00228271
0.00349389
0.00470274
0.00571077
0.00632045
0.00639922
0.00593459
0.00505167
0.00394953
0.00284557
0.00179625
0.000596557
-0.00022685
-0.000703967
-0.00101726
-0.00120631
-0.00125839
-0.00112199
-0.00072945
-2.67499e-05
0.000992849
0.0022647
0.00363117
0.00486235
0.00569978
0.00593344
0.00548153
0.00443663
0.0030011
0.00146328
0.00119549
-0.000202188
-0.00116241
-0.0017518
-0.00221048
-0.00258969
-0.00286823
-0.00297011
-0.00279078
-0.00223174
-0.00124286
0.000151734
0.00179405
0.00342102
0.0046914
0.0052759
0.00497308
0.00380687
0.00198023
-0.000102807
-0.000240787
-0.00179923
-0.00289133
-0.00362126
-0.0042767
-0.00491557
-0.00550394
-0.00593633
-0.00606329
-0.00572712
-0.00480556
-0.00328382
-0.001269
0.000947999
0.00292756
0.00417111
0.0042805
0.00313679
0.000903878
-0.00185496
-0.00265103
-0.00432541
-0.00554027
-0.00643825
-0.00734601
-0.00832656
-0.00933262
-0.0102274
-0.0108098
-0.0108489
-0.010132
-0.00853747
-0.00610556
-0.0031108
-8.50283e-05
0.00225638
0.00321396
0.00239658
-0.00017605
-0.0037516
-0.00612034
-0.00786067
-0.00918367
-0.0102707
-0.0114818
-0.012888
-0.014433
-0.0159514
-0.017188
-0.017826
-0.0175336
-0.016041
-0.0132514
-0.00935587
-0.00493448
-0.00093995
0.00150948
0.00155594
-0.00113579
-0.0056454
-0.0106704
-0.0124225
-0.0138263
-0.0151008
-0.0166409
-0.0185344
-0.0207256
-0.0230288
-0.0251386
-0.0266473
-0.0270822
-0.0259756
-0.0230324
-0.0182523
-0.0121661
-0.00592055
-0.0011408
0.000604443
-0.00172999
-0.00719372
-0.0162593
-0.0179641
-0.0193945
-0.0208049
-0.0226401
-0.0250218
-0.0279096
-0.0311097
-0.0342756
-0.0369119
-0.0383932
-0.0380046
-0.0352821
-0.0298316
-0.0220033
-0.0130047
-0.00495825
-0.000374097
-0.0015146
-0.00771924
-0.0228016
-0.0243887
-0.0257413
-0.027147
-0.029142
-0.031909
-0.0354406
-0.0395475
-0.0438529
-0.0477825
-0.0505778
-0.0513751
-0.0491613
-0.043392
-0.033987
-0.0219759
-0.00980432
-0.00102327
0.000281472
-0.00599858
-0.0302211
-0.0315848
-0.0326682
-0.0337906
-0.0356666
-0.0385782
-0.0425672
-0.0474531
-0.0528322
-0.0580605
-0.0622489
-0.0643085
-0.0630203
-0.0573301
-0.046691
-0.0317033
-0.0147995
-0.000415608
0.00496699
2.41569e-05
-0.0385585
-0.039488
-0.0399598
-0.0403255
-0.0416334
-0.0443079
-0.0484438
-0.0538574
-0.0601039
-0.0664634
-0.0719274
-0.0752195
-0.0748685
-0.0694196
-0.0578054
-0.0400006
-0.0180218
0.00328091
0.0146999
0.013557
-0.0481733
-0.0481555
-0.0474021
-0.0462827
-0.0464106
-0.0483697
-0.0522798
-0.0579113
-0.0647375
-0.0719334
-0.0783587
-0.0825594
-0.0828305
-0.0773723
-0.0646438
-0.0439357
-0.0165422
0.01302
0.0329322
0.0392818
-0.0602335
-0.0579563
-0.0548659
-0.0512121
-0.0494258
-0.050177
-0.0535188
-0.059092
-0.0662183
-0.0739169
-0.0808777
-0.0854517
-0.0857054
-0.0795185
-0.0649407
-0.0406102
-0.00697787
0.0328178
0.0647947
0.0836777
-0.07748
-0.0694719
-0.0620862
-0.0545483
-0.0501378
-0.0493238
-0.051903
-0.0572595
-0.0644846
-0.0723833
-0.0794383
-0.0837768
-0.0832171
-0.0752818
-0.0576204
-0.0282104
0.0133532
0.0666618
0.115753
0.154808
-0.108924
-0.0850389
-0.0697723
-0.0563906
-0.0485401
-0.0458801
-0.047623
-0.0527136
-0.0599157
-0.0677754
-0.0745508
-0.0781386
-0.0761031
-0.0655415
-0.0436423
-0.00744434
0.0447438
0.114933
0.188079
0.263281
-0.168692
-0.100745
-0.0730922
-0.0522873
-0.0413093
-0.0376987
-0.0394409
-0.0448641
-0.0524143
-0.0604454
-0.0670724
-0.0700464
-0.0666863
-0.0537873
-0.027889
0.0154106
0.0800722
0.172761
0.285855
0.445986
-0.402753
-0.13903
-0.0734583
-0.0447293
-0.030571
-0.0266166
-0.0290845
-0.0353723
-0.0436527
-0.0522059
-0.0591225
-0.0621442
-0.0586162
-0.0452129
-0.0174499
0.0310794
0.108496
0.236657
0.427488
0.79368
)
;

boundaryField
{
    movingWall
    {
        type            zeroGradient;
    }
    fixedWalls
    {
        type            zeroGradient;
    }
    frontAndBack
    {
        type            empty;
    }
}


// ************************************************************************* //
