/*--------------------------------*- C++ -*----------------------------------*\
  =========                 |
  \\      /  F ield         | OpenFOAM: The Open Source CFD Toolbox
   \\    /   O peration     | Website:  https://openfoam.org
    \\  /    A nd           | Version:  13
     \\/     M anipulation  |
\*---------------------------------------------------------------------------*/
FoamFile
{
    format      ascii;
    class       surfaceScalarField;
    location    "25";
    object      phi;
}
// * * * * * * * * * * * * * * * * * * * * * * * * * * * * * * * * * * * * * //

dimensions      [0 3 -1 0 0 0 0];

internalField   nonuniform List<scalar> 
760
(
4.39199e-06
-4.40142e-06
-3.89751e-05
4.33671e-05
-0.000131157
9.21817e-05
-0.000256586
0.00012543
-0.000399487
0.0001429
-0.000546401
0.000146914
-0.00068539
0.000138989
-0.000804687
0.000119297
-0.000892134
8.74466e-05
-0.000935882
4.3748e-05
-0.000926228
-9.65443e-06
-0.000858555
-6.76731e-05
-0.000735922
-0.000122632
-0.000571081
-0.000164842
-0.000386249
-0.000184831
-0.000210071
-0.000176178
-7.16535e-05
-0.000138418
7.52932e-06
-7.9183e-05
2.35963e-05
-1.60672e-05
2.35961e-05
-4.70773e-05
4.26759e-05
-0.00021
0.00020629
-0.000473786
0.000355967
-0.000806014
0.000457658
-0.00117277
0.000509658
-0.00154259
0.000516736
-0.00188599
0.000482381
-0.00217408
0.000407389
-0.00237856
0.00029193
-0.00247374
0.000138924
-0.00244064
-4.27504e-05
-0.0022717
-0.000236611
-0.00197636
-0.000417972
-0.00158357
-0.000557637
-0.0011411
-0.000627302
-0.000709507
-0.000607768
-0.000350411
-0.000497513
-0.000110604
-0.00031899
-5.66926e-06
-0.000121001
1.79267e-05
-0.000111451
0.000154127
-0.000405318
0.000500157
-0.000834744
0.000785393
-0.00135036
0.000973276
-0.00190528
0.00106458
-0.00245603
0.00106748
-0.00296132
0.000987672
-0.00338088
0.00082695
-0.00367604
0.000587087
-0.00381261
0.000275501
-0.00376586
-8.95002e-05
-0.00352636
-0.000476117
-0.00310595
-0.000838383
-0.00254157
-0.00112202
-0.00189514
-0.00127373
-0.00124728
-0.00125563
-0.000683471
-0.00106132
-0.000273874
-0.000728587
-5.21076e-05
-0.000342767
-3.41809e-05
-0.000173174
0.000327301
-0.000593705
0.000920689
-0.00117946
0.00137115
-0.0018621
0.00165592
-0.00258339
0.00178586
-0.00329154
0.00177563
-0.00393795
0.00163408
-0.00447536
0.00136437
-0.00485845
0.00097017
-0.00504669
0.000463748
-0.00500945
-0.000126748
-0.00473206
-0.000753502
-0.00422292
-0.00134753
-0.00351916
-0.00182578
-0.00268943
-0.00210346
-0.00183011
-0.00211495
-0.00105162
-0.00183981
-0.000454576
-0.00132563
-0.000101959
-0.000695384
-0.00013614
-0.000228301
0.000555601
-0.000763695
0.00145608
-0.00149118
0.00209863
-0.00232412
0.00248886
-0.00319453
0.00265628
-0.00404517
0.00262627
-0.00482358
0.00241249
-0.00547893
0.00201971
-0.00596156
0.0014528
-0.00622518
0.000727372
-0.00623133
-0.000120601
-0.0059553
-0.00102954
-0.00539482
-0.001908
-0.00457892
-0.00264168
-0.00357584
-0.00310655
-0.00249489
-0.0031959
-0.00147578
-0.00285891
-0.000660964
-0.00214045
-0.000156596
-0.00119975
-0.000292736
-0.000274787
0.000830388
-0.000908215
0.00208951
-0.00175764
0.00294805
-0.00272085
0.00345207
-0.00372243
0.00365785
-0.00470231
0.00360616
-0.00560725
0.00331743
-0.00638562
0.00279809
-0.00698544
0.00205262
-0.00735491
0.00109684
-0.00744592
-2.95967e-05
-0.00721865
-0.0012568
-0.00665297
-0.00247368
-0.00576021
-0.00353443
-0.00459873
-0.00426803
-0.00328507
-0.00450956
-0.00199094
-0.00415303
-0.000914128
-0.00321727
-0.000223257
-0.00189062
-0.000515993
-0.000310707
0.0011411
-0.00102088
0.00279968
-0.00196691
0.00389409
-0.00303488
0.00452004
-0.00414465
0.00476762
-0.00523597
0.00469748
-0.00625764
0.0043391
-0.00716014
0.00370059
-0.00789152
0.002784
-0.00839589
0.00160121
-0.00861404
0.000188559
-0.0084898
-0.00138105
-0.00797775
-0.00298573
-0.00706145
-0.00445073
-0.00577617
-0.00555331
-0.00423337
-0.00605237
-0.00263277
-0.00575363
-0.00123951
-0.00461052
-0.000311402
-0.00281873
-0.000827395
-0.000334149
0.00147525
-0.00109553
0.00356106
-0.00210696
0.00490552
-0.00324687
0.00565995
-0.00443313
0.00595387
-0.0056078
0.00587216
-0.00672447
0.00545577
-0.00773886
0.00471497
-0.00860242
0.00364756
-0.00925827
0.00225706
-0.00963961
0.000569895
-0.00967252
-0.00134813
-0.00928423
-0.00337402
-0.00842116
-0.0053138
-0.00707916
-0.00689532
-0.00534352
-0.007788
-0.00342558
-0.00767157
-0.00166169
-0.00637442
-0.000431577
-0.00404884
-0.00125897
-0.000343861
0.00181911
-0.00112766
0.00434485
-0.00216774
0.00594561
-0.00333852
0.00683074
-0.00455821
0.00717356
-0.00577338
0.00708733
-0.00694507
0.00662745
-0.00803771
0.00580761
-0.00901063
0.00462048
-0.00981154
0.00305797
-0.0103719
0.00113022
-0.0106056
-0.00111436
-0.0104146
-0.00356501
-0.00970323
-0.00602522
-0.00841162
-0.00818693
-0.00657025
-0.00962937
-0.00436859
-0.00987323
-0.00219922
-0.00854378
-0.000595127
-0.00565294
-0.0018541
-0.000340396
0.0021595
-0.0011171
0.00512156
-0.00214537
0.00697388
-0.00329819
0.00798355
-0.00449601
0.00837139
-0.00569189
0.0082832
-0.00685682
0.00779239
-0.00796758
0.00691837
-0.00899662
0.00564952
-0.00990349
0.00396484
-0.0106273
0.00185398
-0.0110799
-0.000661682
-0.0111478
-0.00349713
-0.0106958
-0.00647721
-0.00959826
-0.00928448
-0.00780007
-0.0114276
-0.00541863
-0.0122547
-0.00285704
-0.0111054
-0.000813798
-0.00769618
-0.0026679
-0.000327668
0.00248717
-0.00107161
0.0058655
-0.00204751
0.00794978
-0.00312808
0.00906412
-0.00423799
0.0094813
-0.00533892
0.00938413
-0.00641443
0.0088679
-0.00745703
0.00796096
-0.00845738
0.00664988
-0.00939457
0.00490203
-0.0102266
0.00268604
-0.0108749
-1.34549e-05
-0.0112316
-0.00314037
-0.0111328
-0.00657601
-0.01039
-0.0100273
-0.00884066
-0.0129769
-0.00647167
-0.0146237
-0.00361421
-0.0139628
-0.0010982
-0.0102122
-0.0037661
-0.000315008
0.00280218
-0.00101103
0.00656152
-0.00189906
0.00883782
-0.00285141
0.0100165
-0.00380001
0.0104299
-0.0047187
0.0103028
-0.00560658
0.00975578
-0.00647484
0.00882922
-0.00733611
0.00751115
-0.00819485
0.00576077
-0.00903629
0.00352747
-0.00981822
0.000768481
-0.0104385
-0.00252006
-0.0107416
-0.00627292
-0.0104956
-0.0102732
-0.00942919
-0.0140434
-0.0073503
-0.0167025
-0.00440754
-0.0169056
-0.00145377
-0.013166
-0.00521987
-0.000320156
0.00312233
-0.000972035
0.0072134
-0.00174705
0.00961283
-0.00251686
0.0107863
-0.00322714
0.0111402
-0.00387023
0.0109459
-0.00446527
0.0103508
-0.00504468
0.00940864
-0.00564495
0.00811141
-0.00629854
0.00641436
-0.00702464
0.00425358
-0.00781667
0.00156051
-0.00861891
-0.00171782
-0.00930331
-0.00558852
-0.0096354
-0.00994115
-0.00926556
-0.0144132
-0.00780702
-0.0181611
-0.00511449
-0.0195981
-0.00187244
-0.016408
-0.00709231
-0.000374077
0.00349641
-0.00101325
0.00785257
-0.00166248
0.0102621
-0.00219638
0.0113202
-0.00258772
0.0115315
-0.00285869
0.0112169
-0.00305491
0.010547
-0.00323242
0.00958615
-0.00345104
0.00833003
-0.00376956
0.00673288
-0.00423991
0.00472393
-0.00489731
0.0022179
-0.00574106
-0.00087407
-0.00670355
-0.00462603
-0.00759863
-0.00904607
-0.00806164
-0.0139502
-0.00754678
-0.018676
-0.00554238
-0.0216025
-0.00231876
-0.0196316
-0.00941106
-0.000529455
0.00402587
-0.00121874
0.00854186
-0.00173233
0.0107756
-0.00196523
0.0115531
-0.0019434
0.0115097
-0.00173673
0.0110102
-0.00142617
0.0102365
-0.00109343
0.00925342
-0.000819314
0.00805591
-0.000683851
0.00659742
-0.00076536
0.00480544
-0.00113642
0.00258896
-0.0018526
-0.000157884
-0.00292505
-0.00355358
-0.00426462
-0.00770651
-0.00557765
-0.0126372
-0.00625528
-0.0179983
-0.00542589
-0.0224319
-0.00270917
-0.0223484
-0.0121202
-0.000868742
0.00489461
-0.00168418
0.00935729
-0.00201355
0.011105
-0.00182746
0.011367
-0.00125263
0.0109349
-0.000432207
0.0101898
0.000508096
0.00929617
0.0014607
0.00830081
0.00232839
0.00718822
0.00301731
0.0059085
0.00343184
0.00439091
0.00347244
0.00254835
0.00303751
0.000277043
0.00203939
-0.00255546
0.000444076
-0.00611119
-0.00161002
-0.0105831
-0.00360098
-0.0160074
-0.00441537
-0.0216175
-0.00288085
-0.0238829
-0.0150011
-0.00149475
0.00638936
-0.00241125
0.0102738
-0.002331
0.0110248
-0.00145112
0.0104871
-7.62347e-05
0.00955998
0.00155317
0.00856039
0.00326658
0.00758276
0.00493946
0.00662793
0.00647004
0.00565764
0.00776282
0.00461572
0.00871766
0.00343606
0.00922251
0.0020435
0.00914718
0.000352375
0.00834956
-0.00175784
0.00668343
-0.00444506
0.00408866
-0.00798832
0.000840719
-0.0127594
-0.00200518
-0.0187716
-0.00250292
-0.0233851
-0.017504
-0.00234101
0.00873037
-0.00281991
0.0107527
-0.00158542
0.00979028
0.000573822
0.00832786
0.00312123
0.00701257
0.00575786
0.00592376
0.00831742
0.0050232
0.0106988
0.00424651
0.0128261
0.00353041
0.0146251
0.00281669
0.0160107
0.00205052
0.0168769
0.00117723
0.0170878
0.00014152
0.0164809
-0.00115094
0.0148418
-0.00280602
0.0119354
-0.00508186
0.00764977
-0.00847381
0.00261199
-0.0137338
-0.000908534
-0.0198646
-0.0184125
-0.00200263
0.010733
0.000357661
0.0083924
0.00431899
0.00582896
0.00833385
0.004313
0.0120917
0.00325467
0.015494
0.00252149
0.0185181
0.00199915
0.0211645
0.00160008
0.0234281
0.0012668
0.0252852
0.000959616
0.0266875
0.000648207
0.0275563
0.000308422
0.0277822
-8.44217e-05
0.0272132
-0.000581868
0.0256275
-0.00122032
0.0226957
-0.00215009
0.0179511
-0.00372918
0.01095
-0.00673275
0.00302462
-0.0119392
-0.0153879
0.010733
0.0191254
0.0249544
0.0292674
0.032522
0.0350435
0.0370427
0.0386427
0.0399095
0.0408692
0.0415174
0.0418258
0.0417414
0.0411595
0.0399392
0.0377891
0.0340599
0.0273272
0.0153879
)
;

boundaryField
{
    movingWall
    {
        type            calculated;
        value           uniform 0;
    }
    fixedWalls
    {
        type            calculated;
        value           uniform 0;
    }
    frontAndBack
    {
        type            empty;
    }
}


// ************************************************************************* //
