/*--------------------------------*- C++ -*----------------------------------*\
  =========                 |
  \\      /  F ield         | OpenFOAM: The Open Source CFD Toolbox
   \\    /   O peration     | Website:  https://openfoam.org
    \\  /    A nd           | Version:  13
     \\/     M anipulation  |
\*---------------------------------------------------------------------------*/
FoamFile
{
    format      ascii;
    class       volVectorField;
    location    "25";
    object      U;
}
// * * * * * * * * * * * * * * * * * * * * * * * * * * * * * * * * * * * * * //

dimensions      [0 1 -1 0 0 0 0];

internalField   nonuniform List<vector> 
400
(
(0.000213588 -0.00021407 0)
(-9.36114e-05 -1.49694e-05 0)
(-0.00151403 0.000202318 0)
(-0.00376287 0.000340563 0)
(-0.00651397 0.000413232 0)
(-0.00947188 0.000441467 0)
(-0.012387 0.0004358 0)
(-0.0150263 0.000395723 0)
(-0.0171499 0.00031473 0)
(-0.0185114 0.000187268 0)
(-0.0188848 1.56932e-05 0)
(-0.0181142 -0.000186994 0)
(-0.0161739 -0.000388841 0)
(-0.0132182 -0.000547968 0)
(-0.00960415 -0.000620149 0)
(-0.00586036 -0.000573152 0)
(-0.00259521 -0.000400826 0)
(-0.00034391 -0.0001344 0)
(0.000586201 0.000143802 0)
(0.000320274 0.000307102 0)
(2.36531e-06 9.09513e-05 0)
(-0.00201783 0.00187322 0)
(-0.00641673 0.0036674 0)
(-0.0125493 0.00490682 0)
(-0.0197007 0.00556123 0)
(-0.0272162 0.00570084 0)
(-0.0344918 0.00537595 0)
(-0.0409478 0.00459411 0)
(-0.046007 0.00334655 0)
(-0.0491142 0.00165302 0)
(-0.0498006 -0.000394554 0)
(-0.0477759 -0.00260588 0)
(-0.0430396 -0.00468779 0)
(-0.0359705 -0.0062833 0)
(-0.0273512 -0.00704544 0)
(-0.0183062 -0.00674117 0)
(-0.0101237 -0.00535773 0)
(-0.00396725 -0.00318007 0)
(-0.000522409 -0.000840572 0)
(0.000244875 0.000614951 0)
(-0.00027783 0.00168044 0)
(-0.00439041 0.00643578 0)
(-0.0118374 0.0106169 0)
(-0.0215422 0.0134426 0)
(-0.0324737 0.0148698 0)
(-0.0437417 0.0150161 0)
(-0.0545057 0.0139692 0)
(-0.0639518 0.0117531 0)
(-0.0712813 0.00838307 0)
(-0.0757458 0.00395587 0)
(-0.0767292 -0.00126685 0)
(-0.0738609 -0.00680828 0)
(-0.0671415 -0.011985 0)
(-0.0570498 -0.0159838 0)
(-0.0445874 -0.0180191 0)
(-0.0312256 -0.0175548 0)
(-0.0187076 -0.0145409 0)
(-0.00869268 -0.00958925 0)
(-0.00231744 -0.00402872 0)
(8.96241e-05 6.8108e-05 0)
(-0.000532274 0.00454872 0)
(-0.00668686 0.0136267 0)
(-0.0170635 0.020839 0)
(-0.0300818 0.0255191 0)
(-0.0443963 0.0277402 0)
(-0.0589424 0.0277111 0)
(-0.072729 0.0255696 0)
(-0.0848 0.0213641 0)
(-0.0942202 0.0151494 0)
(-0.100111 0.00712452 0)
(-0.101732 -0.00224393 0)
(-0.0986009 -0.012151 0)
(-0.0906239 -0.0214578 0)
(-0.0782355 -0.028806 0)
(-0.0624923 -0.0328506 0)
(-0.0450812 -0.0326109 0)
(-0.0281592 -0.0278781 0)
(-0.0139631 -0.0195454 0)
(-0.00428209 -0.00969304 0)
(-3.65337e-05 -0.00145197 0)
(-0.000750719 0.00859788 0)
(-0.00874838 0.0232562 0)
(-0.0217907 0.0340567 0)
(-0.0378037 0.0407649 0)
(-0.0551496 0.0437413 0)
(-0.0726355 0.0433638 0)
(-0.0891863 0.0398479 0)
(-0.103777 0.0332728 0)
(-0.115396 0.0237294 0)
(-0.123068 0.011508 0)
(-0.12592 -0.00273723 0)
(-0.123287 -0.0178879 0)
(-0.114858 -0.0323406 0)
(-0.10086 -0.0441304 0)
(-0.0822361 -0.0512106 0)
(-0.0607737 -0.0519348 0)
(-0.0390486 -0.0456882 0)
(-0.020041 -0.033475 0)
(-0.00648009 -0.0181268 0)
(-0.000142566 -0.00399511 0)
(-0.000930509 0.0136721 0)
(-0.0104901 0.0350356 0)
(-0.0258192 0.0499347 0)
(-0.0444169 0.058835 0)
(-0.0644022 0.0625564 0)
(-0.0845011 0.0617373 0)
(-0.103613 0.0567088 0)
(-0.120707 0.0475831 0)
(-0.134747 0.0344635 0)
(-0.144686 0.0176828 0)
(-0.149504 -0.00198543 0)
(-0.148287 -0.0231679 0)
(-0.140383 -0.0438467 0)
(-0.125637 -0.0614101 0)
(-0.104676 -0.0729449 0)
(-0.0792145 -0.0758272 0)
(-0.052195 -0.0686309 0)
(-0.0275015 -0.0521356 0)
(-0.00917937 -0.0298682 0)
(-0.000263176 -0.00771374 0)
(-0.00106574 0.0195789 0)
(-0.0118374 0.0485828 0)
(-0.0289676 0.0680243 0)
(-0.0496258 0.0792844 0)
(-0.0717527 0.0837955 0)
(-0.094043 0.0825502 0)
(-0.115427 0.0760367 0)
(-0.134923 0.0644003 0)
(-0.151529 0.0477174 0)
(-0.164167 0.0262874 0)
(-0.171672 0.00089574 0)
(-0.172858 -0.0269621 0)
(-0.166649 -0.0549427 0)
(-0.152333 -0.0798073 0)
(-0.12998 -0.0976337 0)
(-0.100951 -0.10445 0)
(-0.068349 -0.0974353 0)
(-0.0370093 -0.0765464 0)
(-0.0127325 -0.0457718 0)
(-0.000442762 -0.0129367 0)
(-0.00114883 0.0260868 0)
(-0.0127186 0.0634276 0)
(-0.0310613 0.087761 0)
(-0.0531227 0.101537 0)
(-0.0767339 0.106928 0)
(-0.100605 0.105368 0)
(-0.123747 0.09755 0)
(-0.14529 0.0836545 0)
(-0.164331 0.0636882 0)
(-0.179827 0.037827 0)
(-0.190539 0.00673277 0)
(-0.195034 -0.0281557 0)
(-0.191787 -0.0643316 0)
(-0.179428 -0.0980484 0)
(-0.157212 -0.124329 0)
(-0.125752 -0.137508 0)
(-0.0878755 -0.132633 0)
(-0.0491535 -0.107866 0)
(-0.0175293 -0.0670135 0)
(-0.000736527 -0.0201969 0)
(-0.00117554 0.0329286 0)
(-0.0130867 0.0790198 0)
(-0.0319672 0.108461 0)
(-0.0546385 0.124856 0)
(-0.0788819 0.131215 0)
(-0.103463 0.129499 0)
(-0.12752 0.120658 0)
(-0.150356 0.104921 0)
(-0.171244 0.0821968 0)
(-0.189278 0.0524523 0)
(-0.203262 0.0160838 0)
(-0.211641 -0.0257173 0)
(-0.21253 -0.0705347 0)
(-0.203888 -0.114369 0)
(-0.183965 -0.151326 0)
(-0.152176 -0.173866 0)
(-0.110386 -0.17414 0)
(-0.0642607 -0.147108 0)
(-0.023972 -0.0950114 0)
(-0.00122032 -0.0302495 0)
(-0.00115257 0.0398249 0)
(-0.0129583 0.0947608 0)
(-0.0316626 0.129342 0)
(-0.0540384 0.148337 0)
(-0.0778636 0.155675 0)
(-0.101993 0.153923 0)
(-0.125736 0.144353 0)
(-0.148625 0.127282 0)
(-0.170196 0.102511 0)
(-0.189806 0.0697504 0)
(-0.20647 0.0290146 0)
(-0.218706 -0.0189537 0)
(-0.224491 -0.072114 0)
(-0.221268 -0.126631 0)
(-0.206233 -0.176086 0)
(-0.177228 -0.211216 0)
(-0.134322 -0.220725 0)
(-0.0821213 -0.194668 0)
(-0.0324333 -0.131235 0)
(-0.00200756 -0.0440871 0)
(-0.0011079 0.0465333 0)
(-0.0124662 0.110074 0)
(-0.0303248 0.149571 0)
(-0.0514474 0.170936 0)
(-0.0736406 0.179083 0)
(-0.0958908 0.177277 0)
(-0.117722 0.167184 0)
(-0.138955 0.149266 0)
(-0.159469 0.123254 0)
(-0.179007 0.0886019 0)
(-0.196983 0.0448903 0)
(-0.212217 -0.00772475 0)
(-0.222892 -0.068013 0)
(-0.226271 -0.132661 0)
(-0.218692 -0.195426 0)
(-0.196297 -0.245949 0)
(-0.156607 -0.269502 0)
(-0.10161 -0.249651 0)
(-0.0431491 -0.176836 0)
(-0.00327176 -0.0629399 0)
(-0.00110592 0.0529339 0)
(-0.0119265 0.124514 0)
(-0.0284318 0.168363 0)
(-0.0473763 0.191531 0)
(-0.0666271 0.20003 0)
(-0.0853755 0.19791 0)
(-0.103427 0.187314 0)
(-0.120945 0.168915 0)
(-0.138215 0.142441 0)
(-0.155449 0.107134 0)
(-0.172595 0.062155 0)
(-0.18915 0.00698828 0)
(-0.203737 -0.0580733 0)
(-0.213828 -0.130841 0)
(-0.215539 -0.206077 0)
(-0.203582 -0.273456 0)
(-0.172567 -0.315699 0)
(-0.120279 -0.309131 0)
(-0.0559913 -0.232031 0)
(-0.00526761 -0.0882258 0)
(-0.00127373 0.0591637 0)
(-0.0119277 0.137928 0)
(-0.0268619 0.185088 0)
(-0.0428152 0.209009 0)
(-0.0577777 0.216998 0)
(-0.0712956 0.213994 0)
(-0.083566 0.202673 0)
(-0.0951616 0.183973 0)
(-0.106812 0.157685 0)
(-0.119243 0.122927 0)
(-0.133013 0.0785201 0)
(-0.148324 0.0233173 0)
(-0.164647 -0.0432933 0)
(-0.180268 -0.120715 0)
(-0.191691 -0.205519 0)
(-0.193025 -0.288912 0)
(-0.176329 -0.352959 0)
(-0.134117 -0.367622 0)
(-0.070081 -0.295231 0)
(-0.00832733 -0.121382 0)
(-0.00184964 0.0658219 0)
(-0.013458 0.150625 0)
(-0.0269711 0.199363 0)
(-0.0392295 0.222307 0)
(-0.0485032 0.228425 0)
(-0.0549781 0.223632 0)
(-0.0594227 0.211131 0)
(-0.0629022 0.192126 0)
(-0.0666021 0.166503 0)
(-0.0717295 0.133342 0)
(-0.0794195 0.091262 0)
(-0.0905995 0.0386666 0)
(-0.105711 -0.0259464 0)
(-0.124239 -0.103482 0)
(-0.14391 -0.1929 0)
(-0.159454 -0.288463 0)
(-0.161629 -0.37433 0)
(-0.137665 -0.417156 0)
(-0.0832646 -0.362085 0)
(-0.0127832 -0.163495 0)
(-0.00328657 0.0743325 0)
(-0.018083 0.163585 0)
(-0.0305602 0.211081 0)
(-0.0382776 0.23037 0)
(-0.0401635 0.232669 0)
(-0.0375377 0.224874 0)
(-0.0319979 0.210589 0)
(-0.0251999 0.191168 0)
(-0.0187714 0.166549 0)
(-0.0143188 0.135813 0)
(-0.0134323 0.0975028 0)
(-0.0176465 0.0497981 0)
(-0.0283088 -0.0093511 0)
(-0.0462314 -0.0820385 0)
(-0.0709751 -0.169595 0)
(-0.0992372 -0.270381 0)
(-0.122589 -0.373684 0)
(-0.124374 -0.448104 0)
(-0.0915504 -0.424658 0)
(-0.0187138 -0.214586 0)
(-0.00636399 0.0873955 0)
(-0.0280126 0.178258 0)
(-0.0392823 0.219868 0)
(-0.0405791 0.231589 0)
(-0.0323268 0.227561 0)
(-0.0177631 0.215417 0)
(0.000373152 0.198795 0)
(0.0197614 0.178928 0)
(0.0383876 0.155669 0)
(0.054374 0.128075 0)
(0.0658476 0.0947014 0)
(0.070874 0.0537255 0)
(0.0674194 0.00295955 0)
(0.0535259 -0.0602712 0)
(0.0276625 -0.138976 0)
(-0.00977246 -0.23563 0)
(-0.0537673 -0.347024 0)
(-0.0866166 -0.450324 0)
(-0.0885204 -0.470851 0)
(-0.0253076 -0.272264 0)
(-0.0125247 0.110609 0)
(-0.04522 0.196707 0)
(-0.0514526 0.224539 0)
(-0.0408742 0.223119 0)
(-0.0170357 0.209832 0)
(0.0139316 0.192195 0)
(0.0480185 0.173107 0)
(0.0823831 0.153192 0)
(0.114851 0.13197 0)
(0.143514 0.108393 0)
(0.16646 0.0810826 0)
(0.181618 0.0483828 0)
(0.186569 0.00832082 0)
(0.178641 -0.0416947 0)
(0.154758 -0.105194 0)
(0.112462 -0.187488 0)
(0.0512032 -0.293356 0)
(-0.0143156 -0.414488 0)
(-0.0643339 -0.485122 0)
(-0.0295905 -0.330461 0)
(-0.0216115 0.148418 0)
(-0.0652289 0.213122 0)
(-0.0493938 0.215068 0)
(-0.0130319 0.19509 0)
(0.0358876 0.171613 0)
(0.0887348 0.149602 0)
(0.141275 0.129846 0)
(0.191065 0.111755 0)
(0.236469 0.0943078 0)
(0.276071 0.0763375 0)
(0.308326 0.056607 0)
(0.331396 0.0337857 0)
(0.342843 0.00634712 0)
(0.339857 -0.0276624 0)
(0.318524 -0.0712366 0)
(0.27466 -0.130265 0)
(0.202174 -0.214989 0)
(0.107943 -0.334974 0)
(-0.00320487 -0.451462 0)
(-0.0232652 -0.378735 0)
(-0.0274723 0.229336 0)
(-0.0364933 0.22312 0)
(0.0465602 0.176951 0)
(0.127046 0.138742 0)
(0.2056 0.109501 0)
(0.277488 0.0878763 0)
(0.34179 0.0715784 0)
(0.398483 0.058582 0)
(0.44762 0.0473868 0)
(0.488958 0.0368461 0)
(0.521798 0.0260104 0)
(0.544926 0.014023 0)
(0.556399 5.28418e-06 0)
(0.55389 -0.017037 0)
(0.533365 -0.0390881 0)
(0.490589 -0.0704558 0)
(0.415322 -0.120934 0)
(0.304905 -0.213375 0)
(0.125881 -0.348318 0)
(0.023668 -0.37879 0)
(0.21444 0.135797 0)
(0.285137 0.0984496 0)
(0.444655 0.0569152 0)
(0.547913 0.036584 0)
(0.621662 0.0241691 0)
(0.678249 0.0163207 0)
(0.722823 0.011336 0)
(0.758414 0.00800682 0)
(0.786854 0.00557321 0)
(0.809037 0.00357111 0)
(0.825149 0.00169394 0)
(0.834864 -0.000271512 0)
(0.837314 -0.00250679 0)
(0.831191 -0.00505122 0)
(0.813548 -0.00850247 0)
(0.781941 -0.0135056 0)
(0.72408 -0.0231768 0)
(0.635276 -0.0406015 0)
(0.43131 -0.0912947 0)
(0.270899 -0.153523 0)
)
;

boundaryField
{
    movingWall
    {
        type            fixedValue;
        value           uniform (1 0 0);
    }
    fixedWalls
    {
        type            fixedValue;
        value           uniform (0 0 0);
    }
    frontAndBack
    {
        type            empty;
    }
}


// ************************************************************************* //
