/*--------------------------------*- C++ -*----------------------------------*\
  =========                 |
  \\      /  F ield         | OpenFOAM: The Open Source CFD Toolbox
   \\    /   O peration     | Website:  https://openfoam.org
    \\  /    A nd           | Version:  13
     \\/     M anipulation  |
\*---------------------------------------------------------------------------*/
FoamFile
{
    format      ascii;
    class       volScalarField;
    location    "10";
    object      p;
}
// * * * * * * * * * * * * * * * * * * * * * * * * * * * * * * * * * * * * * //

dimensions      [0 2 -2 0 0 0 0];

internalField   nonuniform List<scalar> 
400
(
5.79284e-08
-0.000559881
-0.00118296
-0.00166375
-0.00188274
-0.00178931
-0.00136011
-0.000585626
0.000524225
0.00192549
0.00352603
0.00517683
0.0066862
0.00784669
0.00848556
0.00852115
0.00800677
0.00714749
0.00624414
0.00569838
0.000555873
-2.08331e-05
-0.000552392
-0.000920357
-0.00107523
-0.000985478
-0.000631598
-5.926e-07
0.000906575
0.00206071
0.00338963
0.00477618
0.00605418
0.00704573
0.0076001
0.00764516
0.00722485
0.00650677
0.00574688
0.00518385
0.00120919
0.000475138
-8.57194e-05
-0.000421234
-0.000565021
-0.00051263
-0.000251041
0.000239155
0.000972048
0.00193903
0.00309074
0.00432753
0.0054993
0.00643113
0.00696529
0.00701462
0.00660295
0.00587145
0.00502871
0.00426675
0.0016832
0.000730726
6.24662e-05
-0.000311965
-0.000502646
-0.000530285
-0.000386145
-3.99035e-05
0.000543632
0.00138171
0.00244898
0.0036614
0.00486821
0.0058758
0.0064906
0.00658195
0.00613619
0.00527471
0.00419195
0.00310261
0.00172694
0.000556618
-0.000241576
-0.000693802
-0.000976672
-0.00112953
-0.00114217
-0.000967336
-0.000542008
0.00018409
0.00121489
0.00248817
0.00384889
0.0050733
0.00590837
0.0061479
0.00571071
0.00468668
0.00327376
0.00175617
0.00113229
-0.000232819
-0.00116456
-0.00172394
-0.00214394
-0.00247595
-0.00270234
-0.00275287
-0.00252923
-0.00193878
-0.00093908
0.000461233
0.00209294
0.00370328
0.00495888
0.0055371
0.0052401
0.00409107
0.00228905
0.000231899
-0.000275388
-0.00180045
-0.00286136
-0.00355506
-0.00416161
-0.00473981
-0.00526061
-0.00562592
-0.0056945
-0.00531535
-0.004366
-0.00284882
-0.000852678
0.00133406
0.00328097
0.00449938
0.00459891
0.00346334
0.00125406
-0.00147418
-0.00263245
-0.00427539
-0.00545725
-0.00631219
-0.00715965
-0.00806449
-0.00898584
-0.00979598
-0.0103039
-0.0102879
-0.00954046
-0.00794458
-0.00553729
-0.00258751
0.000384079
0.00267535
0.00359974
0.00277416
0.00021915
-0.0033233
-0.00602582
-0.00773946
-0.00902901
-0.0100665
-0.0112059
-0.0125213
-0.0139642
-0.01538
-0.0165254
-0.0170943
-0.016763
-0.0152666
-0.012507
-0.00867029
-0.00432502
-0.000408717
0.00197806
0.00199214
-0.00069485
-0.00517275
-0.010483
-0.0122159
-0.0135879
-0.0148079
-0.0162667
-0.0180563
-0.0201303
-0.0223153
-0.0243196
-0.0257473
-0.026135
-0.0250242
-0.0221142
-0.0174033
-0.0114105
-0.00526816
-0.000581271
0.00110223
-0.00124772
-0.00668698
-0.0159713
-0.017667
-0.0190698
-0.0204243
-0.0221728
-0.0244421
-0.0272024
-0.030274
-0.0333259
-0.035876
-0.0373105
-0.0369357
-0.0342349
-0.0288566
-0.0211301
-0.0122492
-0.00431763
0.000177394
-0.00100351
-0.00719831
-0.0224166
-0.0240066
-0.0253397
-0.0266933
-0.0286022
-0.0312547
-0.0346552
-0.0386302
-0.0428205
-0.0466671
-0.0494199
-0.0502041
-0.048053
-0.0423654
-0.033065
-0.0211726
-0.00912168
-0.000444909
0.000797189
-0.00549454
-0.0297545
-0.0311344
-0.0322105
-0.0332911
-0.0350892
-0.0378913
-0.0417521
-0.0465096
-0.0517801
-0.0569366
-0.0611007
-0.063181
-0.0619565
-0.0563564
-0.045822
-0.0309432
-0.014147
0.000138204
0.00544844
0.000470122
-0.0380364
-0.0389957
-0.0394768
-0.0398181
-0.0410631
-0.0436384
-0.0476529
-0.0529444
-0.0590911
-0.0653928
-0.070852
-0.0741915
-0.0739291
-0.068591
-0.0570894
-0.0393849
-0.0174907
0.00373862
0.0150946
0.0138994
-0.0476314
-0.0476561
-0.0469322
-0.045812
-0.0458961
-0.0477678
-0.0515623
-0.0570757
-0.0638083
-0.0709581
-0.0773967
-0.0816697
-0.0820585
-0.0767391
-0.0641428
-0.0435381
-0.0162119
0.0133086
0.0331833
0.0394813
-0.0597158
-0.0574919
-0.0544534
-0.0508249
-0.0490133
-0.0496849
-0.0529108
-0.0583633
-0.0653946
-0.073051
-0.0800363
-0.0847015
-0.0850975
-0.0790771
-0.0646578
-0.0404471
-0.00688276
0.0328929
0.0648617
0.0837132
-0.0770358
-0.0690898
-0.0617778
-0.054288
-0.0498638
-0.0489683
-0.0514238
-0.0566483
-0.0637699
-0.0716221
-0.0787032
-0.0831404
-0.0827362
-0.0749875
-0.057507
-0.0282398
0.0132368
0.0665426
0.115639
0.154686
-0.108594
-0.0847744
-0.0695991
-0.0562781
-0.0484129
-0.0456624
-0.0472678
-0.052213
-0.0593001
-0.0671044
-0.0738995
-0.0775823
-0.0757003
-0.0653308
-0.0436222
-0.00758022
0.0445111
0.114674
0.187834
0.263036
-0.168468
-0.100575
-0.0730276
-0.0522856
-0.0412909
-0.0375845
-0.0391823
-0.0444529
-0.0518796
-0.0598451
-0.0664804
-0.0695379
-0.0663293
-0.0536
-0.0278849
0.0152577
0.0798144
0.172459
0.285551
0.445699
-0.402535
-0.138882
-0.0734227
-0.0447674
-0.0305996
-0.0265554
-0.0288829
-0.0350183
-0.0431707
-0.0516485
-0.0585582
-0.061643
-0.0582351
-0.0450038
-0.0174147
0.0309635
0.108273
0.236383
0.427204
0.793406
)
;

boundaryField
{
    movingWall
    {
        type            zeroGradient;
    }
    fixedWalls
    {
        type            zeroGradient;
    }
    frontAndBack
    {
        type            empty;
    }
}


// ************************************************************************* //
