/*--------------------------------*- C++ -*----------------------------------*\
  =========                 |
  \\      /  F ield         | OpenFOAM: The Open Source CFD Toolbox
   \\    /   O peration     | Website:  https://openfoam.org
    \\  /    A nd           | Version:  13
     \\/     M anipulation  |
\*---------------------------------------------------------------------------*/
FoamFile
{
    format      ascii;
    class       surfaceScalarField;
    location    "10";
    object      phi;
}
// * * * * * * * * * * * * * * * * * * * * * * * * * * * * * * * * * * * * * //

dimensions      [0 3 -1 0 0 0 0];

internalField   nonuniform List<scalar> 
760
(
3.93198e-06
-3.93223e-06
-3.89433e-05
4.28755e-05
-0.000129564
9.06211e-05
-0.000252656
0.000123092
-0.000392784
0.000140127
-0.000536795
0.000144012
-0.000673041
0.000136246
-0.000790059
0.000117018
-0.000876005
8.59462e-05
-0.000919311
4.33057e-05
-0.000910453
-8.85794e-06
-0.000844803
-6.56504e-05
-0.000725198
-0.000119604
-0.000563944
-0.000161255
-0.000382657
-0.000181287
-0.000209355
-0.000173302
-7.26667e-05
-0.000136688
6.07912e-06
-7.87458e-05
2.27898e-05
-1.67106e-05
2.27899e-05
-4.6391e-05
4.24589e-05
-0.000206252
0.000202737
-0.00046467
0.000349038
-0.000789966
0.000448388
-0.00114905
0.000499211
-0.00151124
0.000506199
-0.00184779
0.000472796
-0.00213057
0.000399797
-0.00233194
0.00028732
-0.00242672
0.000138086
-0.00239617
-3.94077e-05
-0.00223255
-0.000229268
-0.00194472
-0.000407439
-0.00156064
-0.000545337
-0.00112685
-0.000615071
-0.000702658
-0.000597496
-0.000348668
-0.000490678
-0.000111243
-0.000316171
-6.41503e-06
-0.000121538
1.63749e-05
-0.000109058
0.000151517
-0.000396406
0.000490085
-0.000816266
0.000768899
-0.00132053
0.00095265
-0.0018635
0.00104219
-0.00240285
0.00104554
-0.00289834
0.000968281
-0.00331066
0.000812123
-0.00360196
0.000578622
-0.0037386
0.000274719
-0.00369595
-8.20491e-05
-0.00346425
-0.000460971
-0.00305455
-0.000817144
-0.00250256
-0.00109733
-0.0018687
-0.00124893
-0.00123204
-0.00123416
-0.000676707
-0.00104601
-0.000272155
-0.000720723
-5.22247e-05
-0.000341468
-3.58499e-05
-0.000169002
0.000320518
-0.000579567
0.00090065
-0.00115179
0.00134112
-0.00181919
0.00162005
-0.00252508
0.00174807
-0.00321901
0.00173948
-0.00385359
0.00160286
-0.0043826
0.00134114
-0.00476149
0.00095751
-0.00495019
0.000463414
-0.00491806
-0.000114172
-0.00465
-0.00072903
-0.00415357
-0.00131358
-0.00346468
-0.00178621
-0.00265048
-0.00206313
-0.00180562
-0.00207901
-0.00103894
-0.00181269
-0.000449892
-0.00130978
-0.000101223
-0.000690138
-0.000137072
-0.000222628
0.000543146
-0.000745215
0.00142324
-0.00145602
0.00205193
-0.00227081
0.00243484
-0.00312341
0.00260067
-0.00395804
0.00257411
-0.00472347
0.00236829
-0.0053698
0.00198747
-0.00584803
0.00143574
-0.00611216
0.000727542
-0.00612371
-0.000102623
-0.00585741
-0.000995325
-0.00531037
-0.00186063
-0.00451058
-0.002586
-0.00352494
-0.00304877
-0.0024611
-0.00314286
-0.00145689
-0.0028169
-0.000653087
-0.00211358
-0.000154937
-0.00118829
-0.00029201
-0.000268145
0.000811291
-0.000886992
0.00204208
-0.00171788
0.00288282
-0.00266136
0.00337832
-0.003644
0.00358331
-0.00460722
0.00353733
-0.00549888
0.00325994
-0.00626814
0.00275673
-0.00686344
0.00203104
-0.00723302
0.00109713
-0.00732922
-6.42379e-06
-0.00711089
-0.00121366
-0.00655796
-0.00241355
-0.00568109
-0.00346287
-0.00453763
-0.00419222
-0.00324268
-0.0044378
-0.00196596
-0.00409362
-0.000902987
-0.00317656
-0.000220633
-0.00187064
-0.000512642
-0.000303811
0.0011151
-0.000999024
0.0027373
-0.00192627
0.00381007
-0.00297454
0.00442658
-0.00406572
0.00467449
-0.00514099
0.0046126
-0.00615009
0.00426905
-0.00704407
0.00365071
-0.00777117
0.00275815
-0.0082755
0.00160145
-0.00849701
0.000215086
-0.00838029
-0.00133038
-0.0078791
-0.00291475
-0.00697683
-0.00436514
-0.00570838
-0.00546068
-0.00418426
-0.00596192
-0.00260238
-0.00567549
-0.00122521
-0.00455373
-0.000307775
-0.00278807
-0.000820417
-0.000327817
0.00144292
-0.00107543
0.00348491
-0.00206962
0.00480425
-0.00319159
0.00554856
-0.00436118
0.00584407
-0.00552175
0.00577318
-0.00662766
0.00537495
-0.00763492
0.00465797
-0.00849491
0.00361814
-0.00915046
0.002257
-0.00953429
0.000598916
-0.00957238
-0.00129229
-0.00919178
-0.00329535
-0.00833914
-0.00521778
-0.00701058
-0.00678924
-0.0052913
-0.0076812
-0.00339145
-0.00757535
-0.00164467
-0.00630051
-0.000426958
-0.00400578
-0.00124738
-0.000338915
0.00178183
-0.00111172
0.00425771
-0.00213788
0.00583041
-0.00329422
0.0067049
-0.00450071
0.00705057
-0.00570508
0.00697755
-0.00686896
0.00653883
-0.00795684
0.00574585
-0.00892774
0.00458904
-0.00972877
0.00305804
-0.0102908
0.00116093
-0.0105274
-0.00105563
-0.0103404
-0.00348243
-0.0096344
-0.00592373
-0.00835073
-0.00807291
-0.00652069
-0.00951124
-0.00433378
-0.00976226
-0.00218055
-0.00845374
-0.00058965
-0.00559668
-0.00183703
-0.000337554
0.00211939
-0.00110744
0.0050276
-0.00212671
0.00684968
-0.0032701
0.00784829
-0.00445956
0.00824003
-0.00564911
0.0081671
-0.00681018
0.00769989
-0.00791941
0.00685508
-0.00894873
0.00561836
-0.00985687
0.00396618
-0.010582
0.00188608
-0.0110358
-0.000601822
-0.0111039
-0.00341437
-0.0106518
-0.00637585
-0.00955517
-0.00916952
-0.00776087
-0.0113055
-0.00538782
-0.0121353
-0.00283864
-0.0110029
-0.00080781
-0.00762751
-0.00264484
-0.000327444
0.00244683
-0.00106979
0.00576994
-0.00204283
0.00782273
-0.00312017
0.00892562
-0.00422752
0.00934738
-0.00532734
0.00926692
-0.00640345
0.008776
-0.00744811
0.00789974
-0.00845134
0.00662159
-0.00939127
0.00490611
-0.0102247
0.00271949
-0.0108738
4.73436e-05
-0.0112274
-0.00306086
-0.0111233
-0.00647993
-0.0103743
-0.00991853
-0.00882011
-0.0128597
-0.00645073
-0.0145047
-0.00359895
-0.0138547
-0.00109235
-0.0101341
-0.00373719
-0.00031764
0.00276447
-0.00101785
0.00647015
-0.00190988
0.00871475
-0.00286582
0.00988157
-0.00381812
0.0102997
-0.00474106
0.0101899
-0.0056339
0.00966884
-0.00650754
0.00877338
-0.00737401
0.00748806
-0.00823693
0.00576903
-0.00908074
0.0035633
-0.00986043
0.000827032
-0.0104763
-0.00244497
-0.0107708
-0.0061855
-0.0105129
-0.0101764
-0.00943374
-0.0139389
-0.00734495
-0.0165935
-0.0043989
-0.0168007
-0.00144905
-0.013084
-0.00518624
-0.000325577
0.00309005
-0.000987432
0.00713201
-0.00177335
0.00950067
-0.00255363
0.0106618
-0.00327368
0.0110197
-0.00392591
0.0108421
-0.00452939
0.0102723
-0.0051163
0.00936029
-0.00572267
0.00809443
-0.0063804
0.00642676
-0.00710801
0.00429092
-0.00789792
0.00161693
-0.00869414
-0.00164874
-0.00936796
-0.00551168
-0.00968499
-0.00985933
-0.00929707
-0.0143268
-0.00782075
-0.0180698
-0.00511563
-0.0195059
-0.00187007
-0.0163295
-0.00705631
-0.000381901
0.00347195
-0.00103619
0.0077863
-0.00170261
0.0101671
-0.00225324
0.0112125
-0.00265972
0.0114262
-0.00294375
0.0111261
-0.00315063
0.0104792
-0.00333621
0.00954587
-0.00356013
0.00831835
-0.0038811
0.00674773
-0.00435096
0.00476077
-0.00500467
0.00227065
-0.00584134
-0.000812079
-0.00679279
-0.00456023
-0.00767236
-0.00897976
-0.00811561
-0.0138835
-0.00757878
-0.0186066
-0.00555473
-0.0215299
-0.00231985
-0.0195644
-0.00937616
-0.000538895
0.00401085
-0.00124704
0.00849444
-0.00178267
0.0107027
-0.00203725
0.0114671
-0.00203471
0.0114237
-0.00184379
0.0109352
-0.00154485
0.0101803
-0.00121944
0.00922046
-0.00094849
0.0080474
-0.000812478
0.00661172
-0.000890304
0.0048386
-0.00125506
0.00263541
-0.00196262
-0.000104516
-0.00302397
-0.00349888
-0.00434925
-0.00765448
-0.00564406
-0.0125887
-0.00629987
-0.0179508
-0.00544792
-0.0223819
-0.00271418
-0.0222981
-0.0120903
-0.000878432
0.00488928
-0.001714
0.00933001
-0.00206773
0.0110564
-0.00190606
0.0113054
-0.00135292
0.0108705
-0.000549676
0.010132
0.000378768
0.00925181
0.00132512
0.00827411
0.00219177
0.00718075
0.00288414
0.00591936
0.00330557
0.00441716
0.00335546
0.00258552
0.00293123
0.000319711
0.00194478
-0.00251243
0.000362403
-0.0060721
-0.00167654
-0.0105498
-0.00364921
-0.0159782
-0.00444253
-0.0215886
-0.00288906
-0.0238516
-0.0149794
-0.00150245
0.00639173
-0.00243648
0.010264
-0.00237898
0.010999
-0.00152297
0.0104494
-0.000169889
0.00951745
0.0014419
0.00852018
0.00314321
0.0075505
0.00480993
0.00660739
0.0063401
0.00565057
0.00763751
0.00462196
0.0086009
0.00345376
0.00911693
0.0020695
0.00905409
0.000382545
0.00826908
-0.00172742
0.00661529
-0.00441831
0.00403303
-0.00796753
0.000799304
-0.0127444
-0.00203102
-0.0187582
-0.0025123
-0.0233703
-0.0174917
-0.00234397
0.00873569
-0.00283328
0.0107534
-0.0016154
0.00978108
0.000524208
0.00830976
0.00305197
0.00698969
0.00567148
0.00590067
0.00821821
0.00500377
0.0105921
0.00423348
0.0127175
0.00352522
0.0145199
0.0028195
0.0159133
0.00206036
0.0167906
0.0011922
0.0170144
0.000158772
0.0164204
-0.00113346
0.0147934
-0.00279122
0.0118972
-0.00507141
0.00762082
-0.00846801
0.00259298
-0.0137304
-0.000916878
-0.0198605
-0.0184086
-0.00200047
0.0107362
0.000358042
0.00839484
0.00431168
0.00582744
0.00831373
0.00430771
0.0120564
0.00324703
0.0154437
0.00251335
0.0184553
0.00199217
0.0210934
0.00159543
0.0233535
0.00126509
0.0252121
0.000960899
0.0266204
0.00065202
0.0274987
0.00031389
0.0277352
-7.76789e-05
0.0271777
-0.000575952
0.0256021
-0.00121569
0.0226782
-0.00214742
0.0179387
-0.00372854
0.0109416
-0.00673327
0.00302081
-0.0119397
-0.0153878
0.0107362
0.019131
0.0249584
0.0292662
0.0325132
0.0350265
0.0370187
0.0386141
0.0398792
0.0408401
0.0414921
0.041806
0.0417284
0.0411524
0.0399367
0.0377893
0.0340608
0.0273275
0.0153878
)
;

boundaryField
{
    movingWall
    {
        type            calculated;
        value           uniform 0;
    }
    fixedWalls
    {
        type            calculated;
        value           uniform 0;
    }
    frontAndBack
    {
        type            empty;
    }
}


// ************************************************************************* //
