/*--------------------------------*- C++ -*----------------------------------*\
  =========                 |
  \\      /  F ield         | OpenFOAM: The Open Source CFD Toolbox
   \\    /   O peration     | Website:  https://openfoam.org
    \\  /    A nd           | Version:  13
     \\/     M anipulation  |
\*---------------------------------------------------------------------------*/
FoamFile
{
    format      ascii;
    class       surfaceScalarField;
    location    "10";
    object      phi_0;
}
// * * * * * * * * * * * * * * * * * * * * * * * * * * * * * * * * * * * * * //

dimensions      [0 3 -1 0 0 0 0];

internalField   nonuniform List<scalar> 
760
(
3.92563e-06
-3.9344e-06
-3.89457e-05
4.28714e-05
-0.000129559
9.06132e-05
-0.000252639
0.000123081
-0.000392754
0.000140115
-0.000536752
0.000143998
-0.000672985
0.000136233
-0.000789993
0.000117008
-0.000875932
8.59393e-05
-0.000919236
4.33036e-05
-0.000910381
-8.8543e-06
-0.00084474
-6.56412e-05
-0.00072515
-0.000119591
-0.000563911
-0.000161239
-0.00038264
-0.000181271
-0.000209351
-0.000173289
-7.26711e-05
-0.00013668
6.07263e-06
-7.87438e-05
2.27862e-05
-1.67136e-05
2.27861e-05
-4.63896e-05
4.24553e-05
-0.000206237
0.000202719
-0.00046463
0.000349006
-0.000789894
0.000448346
-0.00114894
0.000499163
-0.00151109
0.00050615
-0.00184761
0.000472752
-0.00213037
0.000399763
-0.00233173
0.000287299
-0.00242651
0.000138082
-0.00239597
-3.93925e-05
-0.00223237
-0.000229235
-0.00194457
-0.000407391
-0.00156053
-0.000545281
-0.00112679
-0.000615015
-0.000702627
-0.00059745
-0.00034866
-0.000490647
-0.000111245
-0.000316158
-6.41855e-06
-0.000121541
1.63675e-05
-0.000109048
0.000151503
-0.000396366
0.000490038
-0.000816183
0.000768823
-0.00132039
0.000952556
-0.00186331
0.00104208
-0.00240261
0.00104544
-0.00289805
0.000968192
-0.00331034
0.000812055
-0.00360163
0.000578583
-0.00373826
0.000274715
-0.00369564
-8.20152e-05
-0.00346397
-0.000460902
-0.00305431
-0.000817047
-0.00250238
-0.00109722
-0.00186858
-0.00124881
-0.00123197
-0.00123406
-0.000676676
-0.00104594
-0.000272147
-0.000720687
-5.22254e-05
-0.000341462
-3.58578e-05
-0.000168983
0.000320486
-0.000579503
0.000900558
-0.00115167
0.00134099
-0.001819
0.00161989
-0.00252481
0.0017479
-0.00321868
0.00173931
-0.0038532
0.00160272
-0.00438218
0.00134103
-0.00476105
0.000957452
-0.00494974
0.000463412
-0.00491765
-0.000114115
-0.00464963
-0.000728919
-0.00415325
-0.00131343
-0.00346443
-0.00178603
-0.0026503
-0.00206295
-0.00180551
-0.00207885
-0.00103889
-0.00181256
-0.000449871
-0.0013097
-0.000101219
-0.000690114
-0.000137077
-0.000222603
0.000543089
-0.000745132
0.00142309
-0.00145586
0.00205172
-0.00227057
0.00243459
-0.00312309
0.00260042
-0.00395764
0.00257387
-0.00472301
0.00236808
-0.0053693
0.00198732
-0.00584751
0.00143566
-0.00611164
0.000727542
-0.00612322
-0.000102541
-0.00585697
-0.000995169
-0.00530998
-0.00186041
-0.00451027
-0.00258575
-0.00352471
-0.0030485
-0.00246095
-0.00314261
-0.00145681
-0.00281671
-0.000653051
-0.00211346
-0.00015493
-0.00118824
-0.000292007
-0.000268115
0.000811204
-0.000886896
0.00204187
-0.0017177
0.00288252
-0.00266109
0.00337798
-0.00364364
0.00358297
-0.00460679
0.00353701
-0.00549838
0.00325968
-0.0062676
0.00275654
-0.00686288
0.00203094
-0.00723247
0.00109713
-0.00732869
-6.31557e-06
-0.00711039
-0.00121347
-0.00655752
-0.00241328
-0.00568072
-0.00346255
-0.00453735
-0.00419188
-0.00324249
-0.00443747
-0.00196585
-0.00409335
-0.000902936
-0.00317637
-0.000220621
-0.00187055
-0.000512627
-0.00030378
0.00111498
-0.000998925
0.00273701
-0.00192609
0.00380968
-0.00297427
0.00442616
-0.00406536
0.00467406
-0.00514056
0.00461221
-0.0061496
0.00426873
-0.00704354
0.00365048
-0.00777062
0.00275803
-0.00827495
0.00160145
-0.00849647
0.000215207
-0.00837979
-0.00133015
-0.00787864
-0.00291442
-0.00697644
-0.00436475
-0.00570807
-0.00546026
-0.00418403
-0.00596151
-0.00260224
-0.00567514
-0.00122514
-0.00455347
-0.000307758
-0.00278793
-0.000820386
-0.000327788
0.00144277
-0.00107534
0.00348456
-0.00206945
0.00480379
-0.00319134
0.00554805
-0.00436085
0.00584357
-0.00552136
0.00577272
-0.00662721
0.00537458
-0.00763444
0.0046577
-0.00849442
0.00361801
-0.00914997
0.002257
-0.00953381
0.000599048
-0.00957192
-0.00129204
-0.00919136
-0.00329499
-0.00833876
-0.00521734
-0.00701027
-0.00678875
-0.00529107
-0.00768071
-0.00339129
-0.00757491
-0.00164459
-0.00630017
-0.000426937
-0.00400559
-0.00124732
-0.000338893
0.00178167
-0.00111165
0.00425732
-0.00213774
0.00582989
-0.00329401
0.00670432
-0.00450044
0.00705
-0.00570477
0.00697705
-0.00686861
0.00653842
-0.00795647
0.00574556
-0.00892736
0.00458889
-0.00972839
0.00305803
-0.0102904
0.00116106
-0.0105271
-0.00105536
-0.01034
-0.00348205
-0.00963409
-0.00592327
-0.00835045
-0.00807239
-0.00652046
-0.0095107
-0.00433362
-0.00976175
-0.00218046
-0.00845333
-0.000589625
-0.00559642
-0.00183695
-0.000337541
0.00211921
-0.00110739
0.00502717
-0.00212662
0.00684912
-0.00326997
0.00784767
-0.0044594
0.00823943
-0.00564892
0.00816657
-0.00680997
0.00769947
-0.00791919
0.00685479
-0.00894851
0.00561821
-0.00985666
0.00396619
-0.0105818
0.00188623
-0.0110356
-0.00060155
-0.0111037
-0.003414
-0.0106516
-0.00637539
-0.00955497
-0.00916899
-0.00776069
-0.011305
-0.00538768
-0.0121348
-0.00283855
-0.0110025
-0.000807783
-0.00762719
-0.00264473
-0.000327443
0.00244665
-0.00106978
0.00576951
-0.00204281
0.00782215
-0.00312013
0.00892499
-0.00422747
0.00934677
-0.00532729
0.00926638
-0.0064034
0.00877558
-0.00744807
0.00789946
-0.00845132
0.00662146
-0.00939125
0.00490612
-0.0102247
0.00271964
-0.0108738
4.76198e-05
-0.0112273
-0.0030605
-0.0111232
-0.00647949
-0.0103742
-0.00991803
-0.00882002
-0.0128592
-0.00645063
-0.0145042
-0.00359888
-0.0138542
-0.00109233
-0.0101337
-0.00373706
-0.000317652
0.0027643
-0.00101788
0.00646974
-0.00190993
0.00871419
-0.00286589
0.00988095
-0.0038182
0.0102991
-0.00474116
0.0101893
-0.00563402
0.00966844
-0.00650769
0.00877313
-0.00737419
0.00748795
-0.00823713
0.00576906
-0.00908095
0.00356346
-0.00986062
0.000827297
-0.0104765
-0.00244463
-0.0107709
-0.0061851
-0.010513
-0.0101759
-0.00943376
-0.0139384
-0.00734492
-0.016593
-0.00439886
-0.0168003
-0.00144903
-0.0130836
-0.00518609
-0.000325601
0.0030899
-0.000987502
0.00713164
-0.00177347
0.00950016
-0.0025538
0.0106613
-0.00327389
0.0110192
-0.00392617
0.0108416
-0.00452969
0.010272
-0.00511663
0.00936007
-0.00572302
0.00809435
-0.00638077
0.00642681
-0.00710839
0.00429108
-0.00789829
0.00161719
-0.00869449
-0.00164843
-0.00936825
-0.00551133
-0.00968522
-0.00985895
-0.00929722
-0.0143264
-0.00782081
-0.0180694
-0.00511563
-0.0195054
-0.00187006
-0.0163292
-0.00705614
-0.000381937
0.00347184
-0.0010363
0.007786
-0.00170279
0.0101667
-0.0022535
0.011212
-0.00266005
0.0114257
-0.00294414
0.0111257
-0.00315107
0.0104789
-0.00333668
0.00954568
-0.00356063
0.00831829
-0.00388162
0.0067478
-0.00435147
0.00476094
-0.00500517
0.00227089
-0.0058418
-0.000811797
-0.0067932
-0.00455993
-0.00767269
-0.00897946
-0.00811586
-0.0138832
-0.00757893
-0.0186063
-0.00555478
-0.0215296
-0.00231985
-0.0195641
-0.009376
-0.000538938
0.00401078
-0.00124717
0.00849422
-0.0017829
0.0107024
-0.00203758
0.0114667
-0.00203513
0.0114233
-0.00184428
0.0109349
-0.00154539
0.01018
-0.00122001
0.00922031
-0.000949083
0.00804736
-0.000813068
0.00661179
-0.000890878
0.00483874
-0.0012556
0.00263562
-0.00196313
-0.000104273
-0.00302443
-0.00349863
-0.00434964
-0.00765425
-0.00564436
-0.0125885
-0.00630008
-0.0179506
-0.00544803
-0.0223816
-0.0027142
-0.0222979
-0.0120902
-0.000878476
0.00488925
-0.00171414
0.00932989
-0.00206798
0.0110562
-0.00190641
0.0113051
-0.00135337
0.0108702
-0.000550213
0.0101317
0.000378177
0.00925161
0.0013245
0.00827399
0.00219115
0.00718071
0.00288353
0.0059194
0.00330499
0.00441728
0.00335492
0.00258569
0.00293074
0.000319905
0.00194435
-0.00251224
0.000362027
-0.00607192
-0.00167685
-0.0105496
-0.00364944
-0.015978
-0.00444265
-0.0215884
-0.00288909
-0.0238515
-0.0149793
-0.00150248
0.00639174
-0.00243659
0.010264
-0.0023792
0.0109988
-0.0015233
0.0104492
-0.000170315
0.00951725
0.00144139
0.00852
0.00314265
0.00755036
0.00480934
0.0066073
0.00633951
0.00565054
0.00763693
0.00462198
0.00860037
0.00345384
0.00911644
0.00206962
0.00905367
0.000382682
0.00826871
-0.00172728
0.00661498
-0.00441819
0.00403278
-0.00796743
0.000799114
-0.0127444
-0.00203114
-0.0187582
-0.00251234
-0.0233703
-0.0174916
-0.00234398
0.00873572
-0.00283334
0.0107534
-0.00161554
0.00978104
0.000523983
0.00830968
0.00305165
0.00698958
0.00567109
0.00590056
0.00821776
0.00500368
0.0105916
0.00423342
0.012717
0.0035252
0.0145194
0.00281951
0.0159129
0.0020604
0.0167902
0.00119227
0.0170141
0.000158851
0.0164202
-0.00113338
0.0147931
-0.00279115
0.0118971
-0.00507136
0.00762068
-0.00846799
0.00259289
-0.0137304
-0.000916916
-0.0198605
-0.0184086
-0.00200046
0.0107362
0.000358044
0.00839485
0.00431165
0.00582743
0.00831364
0.00430769
0.0120562
0.003247
0.0154435
0.00251332
0.018455
0.00199214
0.021093
0.00159541
0.0233531
0.00126508
0.0252118
0.000960905
0.0266201
0.000652037
0.0274985
0.000313915
0.027735
-7.76481e-05
0.0271775
-0.000575925
0.025602
-0.00121567
0.0226781
-0.00214741
0.0179386
-0.00372854
0.0109415
-0.00673327
0.00302079
-0.0119397
-0.0153878
0.0107362
0.019131
0.0249585
0.0292661
0.0325131
0.0350265
0.0370186
0.038614
0.0398791
0.04084
0.041492
0.0418059
0.0417283
0.0411524
0.0399367
0.0377893
0.0340608
0.0273275
0.0153878
)
;

boundaryField
{
    movingWall
    {
        type            calculated;
        value           uniform 0;
    }
    fixedWalls
    {
        type            calculated;
        value           uniform 0;
    }
    frontAndBack
    {
        type            empty;
    }
}


// ************************************************************************* //
