/*--------------------------------*- C++ -*----------------------------------*\
  =========                 |
  \\      /  F ield         | OpenFOAM: The Open Source CFD Toolbox
   \\    /   O peration     | Website:  https://openfoam.org
    \\  /    A nd           | Version:  13
     \\/     M anipulation  |
\*---------------------------------------------------------------------------*/
FoamFile
{
    format      ascii;
    class       volVectorField;
    location    "10";
    object      U;
}
// * * * * * * * * * * * * * * * * * * * * * * * * * * * * * * * * * * * * * //

dimensions      [0 1 -1 0 0 0 0];

internalField   nonuniform List<vector> 
400
(
(0.000206813 -0.000207026 0)
(-0.000102775 -1.15263e-05 0)
(-0.00150226 0.000201304 0)
(-0.00371041 0.000336379 0)
(-0.00640882 0.000407026 0)
(-0.00930852 0.000434011 0)
(-0.0121657 0.000427751 0)
(-0.0147534 0.000387944 0)
(-0.0168377 0.000308384 0)
(-0.0181789 0.000183655 0)
(-0.0185554 1.59243e-05 0)
(-0.0178137 -0.000182387 0)
(-0.0159254 -0.000380312 0)
(-0.0130384 -0.000537104 0)
(-0.00949846 -0.000609405 0)
(-0.00582147 -0.000565244 0)
(-0.00260423 -0.000397725 0)
(-0.000373155 -0.000136619 0)
(0.000561236 0.000136463 0)
(0.000312769 0.00029977 0)
(-6.17337e-08 0.000100255 0)
(-0.00198598 0.00184841 0)
(-0.00629789 0.00360263 0)
(-0.0123032 0.00481289 0)
(-0.0193046 0.00545113 0)
(-0.0266631 0.00558652 0)
(-0.0337902 0.00526885 0)
(-0.040121 0.00450608 0)
(-0.0450931 0.00328954 0)
(-0.0481635 0.00163734 0)
(-0.0488713 -0.0003628 0)
(-0.0469274 -0.00252745 0)
(-0.0423233 -0.00457152 0)
(-0.0354219 -0.00614607 0)
(-0.0269827 -0.00690963 0)
(-0.0181042 -0.00662995 0)
(-0.0100505 -0.0052889 0)
(-0.00396892 -0.00315963 0)
(-0.000545933 -0.000859635 0)
(0.000236449 0.000589212 0)
(-0.000272926 0.00166043 0)
(-0.00429532 0.00631668 0)
(-0.011576 0.0104032 0)
(-0.0210649 0.0131645 0)
(-0.0317575 0.0145606 0)
(-0.0427865 0.0147073 0)
(-0.0533332 0.0136911 0)
(-0.0626043 0.0115355 0)
(-0.0698196 0.00825367 0)
(-0.0742446 0.00393601 0)
(-0.0752704 -0.00116711 0)
(-0.0725243 -0.00659521 0)
(-0.0659951 -0.0116821 0)
(-0.0561411 -0.0156308 0)
(-0.0439359 -0.0176671 0)
(-0.0308191 -0.0172561 0)
(-0.0185032 -0.0143368 0)
(-0.00862505 -0.00949682 0)
(-0.00231571 -0.00403084 0)
(8.36656e-05 3.23685e-05 0)
(-0.000519625 0.00446229 0)
(-0.00652626 0.013341 0)
(-0.0166592 0.0203914 0)
(-0.0293806 0.0249708 0)
(-0.0433812 0.0271525 0)
(-0.0576244 0.0271409 0)
(-0.0711448 0.0250706 0)
(-0.0830089 0.0209868 0)
(-0.0923002 0.0149382 0)
(-0.0981521 0.00711079 0)
(-0.099831 -0.00204836 0)
(-0.0968478 -0.0117612 0)
(-0.0890962 -0.0209142 0)
(-0.0769904 -0.0281742 0)
(-0.061559 -0.0322128 0)
(-0.0444561 -0.0320528 0)
(-0.027804 -0.0274705 0)
(-0.0138099 -0.0193235 0)
(-0.00424725 -0.00963864 0)
(-3.98572e-05 -0.00148233 0)
(-0.000731459 0.0084111 0)
(-0.00853272 0.0227385 0)
(-0.0212683 0.0333017 0)
(-0.0369216 0.0398768 0)
(-0.0538993 0.0428157 0)
(-0.07104 0.0424861 0)
(-0.0872953 0.0390967 0)
(-0.101662 0.0327193 0)
(-0.113145 0.0234325 0)
(-0.120778 0.0115069 0)
(-0.123691 -0.00243079 0)
(-0.121213 -0.0173009 0)
(-0.113019 -0.0315287 0)
(-0.0993223 -0.0431819 0)
(-0.0810412 -0.0502374 0)
(-0.059933 -0.0510571 0)
(-0.0385371 -0.0450119 0)
(-0.0197958 -0.0330628 0)
(-0.00640912 -0.0179712 0)
(-0.000143292 -0.00400173 0)
(-0.000906912 0.0133593 0)
(-0.0102392 0.034238 0)
(-0.0252229 0.0488204 0)
(-0.0434249 0.0575609 0)
(-0.0630145 0.0612567 0)
(-0.0827506 0.0605274 0)
(-0.101559 0.0556908 0)
(-0.118425 0.0468459 0)
(-0.132327 0.0340769 0)
(-0.142222 0.0176887 0)
(-0.147096 -0.00158106 0)
(-0.146024 -0.0223892 0)
(-0.138339 -0.0427659 0)
(-0.123883 -0.0601335 0)
(-0.103267 -0.071609 0)
(-0.0781809 -0.0745848 0)
(-0.0515332 -0.0676276 0)
(-0.0271629 -0.0514733 0)
(-0.00907052 -0.029565 0)
(-0.000261067 -0.00767766 0)
(-0.00104094 0.0191273 0)
(-0.0115777 0.0474827 0)
(-0.0283553 0.0665285 0)
(-0.0486148 0.077608 0)
(-0.0703497 0.0821135 0)
(-0.0922873 0.0810073 0)
(-0.113381 0.0747558 0)
(-0.132664 0.0634839 0)
(-0.149143 0.0472418 0)
(-0.16174 0.0262949 0)
(-0.169279 0.00138895 0)
(-0.170575 -0.0260133 0)
(-0.164552 -0.053618 0)
(-0.150487 -0.0782217 0)
(-0.128445 -0.0959382 0)
(-0.0997769 -0.102823 0)
(-0.0675596 -0.0960629 0)
(-0.0365824 -0.0755805 0)
(-0.0125847 -0.0452753 0)
(-0.000437204 -0.012838 0)
(-0.00112644 0.0254991 0)
(-0.0124804 0.0620329 0)
(-0.0304981 0.0858964 0)
(-0.0521943 0.0994759 0)
(-0.0754506 0.104886 0)
(-0.0990084 0.103518 0)
(-0.121899 0.096031 0)
(-0.143263 0.0825783 0)
(-0.162198 0.0631326 0)
(-0.177659 0.0378319 0)
(-0.188394 0.00729798 0)
(-0.192967 -0.0270754 0)
(-0.18985 -0.0628143 0)
(-0.17767 -0.0962079 0)
(-0.155692 -0.122317 0)
(-0.124533 -0.135516 0)
(-0.0870087 -0.13088 0)
(-0.0486553 -0.10656 0)
(-0.0173438 -0.0662827 0)
(-0.000726583 -0.0200152 0)
(-0.00115919 0.0322247 0)
(-0.0129003 0.0773703 0)
(-0.0315188 0.106277 0)
(-0.0538941 0.122464 0)
(-0.077853 0.128867 0)
(-0.102189 0.127394 0)
(-0.126059 0.118948 0)
(-0.14877 0.103722 0)
(-0.169592 0.0815817 0)
(-0.187611 0.052452 0)
(-0.201617 0.016688 0)
(-0.210043 -0.0245558 0)
(-0.211001 -0.0688975 0)
(-0.202449 -0.112362 0)
(-0.182656 -0.149089 0)
(-0.151055 -0.171582 0)
(-0.109529 -0.172042 0)
(-0.0637275 -0.145457 0)
(-0.0237553 -0.0940182 0)
(-0.00120494 -0.0299655 0)
(-0.00114528 0.0390403 0)
(-0.0128501 0.0929272 0)
(-0.0313871 0.126921 0)
(-0.0535686 0.1457 0)
(-0.0772087 0.153106 0)
(-0.101187 0.151642 0)
(-0.124827 0.142523 0)
(-0.147664 0.126017 0)
(-0.169227 0.101876 0)
(-0.188857 0.0697622 0)
(-0.205551 0.0296495 0)
(-0.217817 -0.0177505 0)
(-0.223617 -0.0704355 0)
(-0.220389 -0.124567 0)
(-0.205355 -0.173753 0)
(-0.176388 -0.208767 0)
(-0.1336 -0.218379 0)
(-0.0816156 -0.192714 0)
(-0.0322011 -0.129975 0)
(-0.00198591 -0.0436857 0)
(-0.00111156 0.0457162 0)
(-0.0124555 0.108152 0)
(-0.0302655 0.147027 0)
(-0.0513203 0.168167 0)
(-0.0734497 0.176402 0)
(-0.0956598 0.174919 0)
(-0.117486 0.16532 0)
(-0.138748 0.148005 0)
(-0.159316 0.122649 0)
(-0.178915 0.0886505 0)
(-0.196936 0.045545 0)
(-0.212201 -0.00654496 0)
(-0.222855 -0.0663747 0)
(-0.226144 -0.130659 0)
(-0.218442 -0.193149 0)
(-0.195922 -0.243506 0)
(-0.156166 -0.267066 0)
(-0.10122 -0.247501 0)
(-0.0429296 -0.175345 0)
(-0.00324385 -0.062416 0)
(-0.00112099 0.0521405 0)
(-0.0120226 0.122617 0)
(-0.0286117 0.165828 0)
(-0.0476294 0.188764 0)
(-0.066949 0.197358 0)
(-0.0857744 0.195583 0)
(-0.103918 0.185507 0)
(-0.121542 0.167731 0)
(-0.138922 0.141919 0)
(-0.156256 0.107253 0)
(-0.173475 0.0628452 0)
(-0.190035 0.00814995 0)
(-0.204557 -0.0565201 0)
(-0.214518 -0.128991 0)
(-0.216017 -0.203994 0)
(-0.203799 -0.271198 0)
(-0.172537 -0.313367 0)
(-0.120102 -0.306949 0)
(-0.0558257 -0.230394 0)
(-0.00523523 -0.0875908 0)
(-0.00129922 0.0584517 0)
(-0.0121285 0.136173 0)
(-0.0272801 0.182703 0)
(-0.0434494 0.206383 0)
(-0.0586128 0.214463 0)
(-0.0723185 0.211805 0)
(-0.084765 0.201004 0)
(-0.0965219 0.182924 0)
(-0.108312 0.157282 0)
(-0.120849 0.123136 0)
(-0.134682 0.0792568 0)
(-0.149991 0.0244725 0)
(-0.166235 -0.0418497 0)
(-0.181693 -0.119071 0)
(-0.192855 -0.203726 0)
(-0.193846 -0.286985 0)
(-0.17677 -0.350923 0)
(-0.13423 -0.365605 0)
(-0.0700172 -0.293584 0)
(-0.00829525 -0.12067 0)
(-0.00188331 0.0652449 0)
(-0.0137495 0.149126 0)
(-0.0276009 0.197264 0)
(-0.0402063 0.219957 0)
(-0.0498001 0.226144 0)
(-0.0565573 0.221668 0)
(-0.0612395 0.209659 0)
(-0.0649075 0.191239 0)
(-0.0687427 0.166222 0)
(-0.0739495 0.133623 0)
(-0.0816618 0.0920124 0)
(-0.0928023 0.0397635 0)
(-0.107809 -0.0246364 0)
(-0.126159 -0.102064 0)
(-0.145564 -0.191431 0)
(-0.16075 -0.28694 0)
(-0.162491 -0.372719 0)
(-0.138083 -0.415483 0)
(-0.0833406 -0.360591 0)
(-0.0127597 -0.162768 0)
(-0.00332464 0.073933 0)
(-0.0184366 0.162435 0)
(-0.0313436 0.209384 0)
(-0.0395109 0.228412 0)
(-0.0418112 0.230738 0)
(-0.0395379 0.223204 0)
(-0.0342728 0.209344 0)
(-0.0276646 0.190439 0)
(-0.0213411 0.166357 0)
(-0.0169146 0.136118 0)
(-0.0159854 0.0982165 0)
(-0.0200986 0.0508005 0)
(-0.030611 -0.0081928 0)
(-0.0483383 -0.0808401 0)
(-0.0728313 -0.168429 0)
(-0.100768 -0.269253 0)
(-0.123711 -0.372536 0)
(-0.125029 -0.446882 0)
(-0.0917713 -0.423467 0)
(-0.0187091 -0.213921 0)
(-0.00639965 0.0871954 0)
(-0.0283781 0.177512 0)
(-0.040117 0.218649 0)
(-0.0419175 0.230105 0)
(-0.0341335 0.226049 0)
(-0.0199626 0.214082 0)
(-0.00211783 0.197786 0)
(0.0170897 0.178333 0)
(0.0356441 0.155516 0)
(0.0516573 0.128337 0)
(0.0632378 0.0953076 0)
(0.0684294 0.0545733 0)
(0.0651775 0.0039293 0)
(0.051508 -0.0592934 0)
(0.0258878 -0.138076 0)
(-0.0112691 -0.234837 0)
(-0.0549286 -0.346289 0)
(-0.0873714 -0.449562 0)
(-0.0888422 -0.470046 0)
(-0.0253277 -0.27174 0)
(-0.0125461 0.110594 0)
(-0.0455163 0.196358 0)
(-0.0521761 0.22381 0)
(-0.0420792 0.222132 0)
(-0.0187066 0.208762 0)
(0.011861 0.19121 0)
(0.0456483 0.172334 0)
(0.0798291 0.152713 0)
(0.112232 0.13182 0)
(0.140939 0.108563 0)
(0.164021 0.0815243 0)
(0.179382 0.0490193 0)
(0.184575 0.00905667 0)
(0.176902 -0.0409567 0)
(0.153269 -0.104539 0)
(0.11122 -0.186962 0)
(0.0502115 -0.292943 0)
(-0.0150068 -0.4141 0)
(-0.06467 -0.48469 0)
(-0.0296293 -0.330125 0)
(-0.0216038 0.148517 0)
(-0.0653601 0.213065 0)
(-0.0498122 0.214748 0)
(-0.0138232 0.194551 0)
(0.0346944 0.170968 0)
(0.0871657 0.148969 0)
(0.1394 0.129322 0)
(0.188982 0.111408 0)
(0.234291 0.0941723 0)
(0.273909 0.0764157 0)
(0.30628 0.0568726 0)
(0.329544 0.0341897 0)
(0.341237 0.00682789 0)
(0.338516 -0.0271836 0)
(0.317438 -0.0708226 0)
(0.2738 -0.129961 0)
(0.201506 -0.214801 0)
(0.10746 -0.334838 0)
(-0.00346667 -0.451308 0)
(-0.0233071 -0.37859 0)
(-0.0274428 0.229438 0)
(-0.0364422 0.22319 0)
(0.0465154 0.176888 0)
(0.126788 0.138546 0)
(0.205054 0.109224 0)
(0.276629 0.0875814 0)
(0.340647 0.0713218 0)
(0.397126 0.058405 0)
(0.44614 0.0473122 0)
(0.487458 0.036878 0)
(0.520375 0.0261362 0)
(0.543664 0.0142164 0)
(0.555344 0.00022958 0)
(0.553062 -0.016815 0)
(0.532762 -0.0389033 0)
(0.490172 -0.0703336 0)
(0.415035 -0.120881 0)
(0.304702 -0.213366 0)
(0.125753 -0.34831 0)
(0.0236353 -0.37877 0)
(0.214471 0.135828 0)
(0.285235 0.0984873 0)
(0.444764 0.0569316 0)
(0.547956 0.0365753 0)
(0.621572 0.0241431 0)
(0.677994 0.0162888 0)
(0.72241 0.0113088 0)
(0.757879 0.00799186 0)
(0.786252 0.00557428 0)
(0.808431 0.00358816 0)
(0.824595 0.00172329 0)
(0.834406 -0.000235384 0)
(0.836981 -0.00247819 0)
(0.830991 -0.00502537 0)
(0.813458 -0.00848473 0)
(0.781927 -0.0135001 0)
(0.7241 -0.023183 0)
(0.635293 -0.0406128 0)
(0.431311 -0.0913055 0)
(0.270896 -0.153528 0)
)
;

boundaryField
{
    movingWall
    {
        type            fixedValue;
        value           uniform (1 0 0);
    }
    fixedWalls
    {
        type            fixedValue;
        value           uniform (0 0 0);
    }
    frontAndBack
    {
        type            empty;
    }
}


// ************************************************************************* //
