/*--------------------------------*- C++ -*----------------------------------*\
  =========                 |
  \\      /  F ield         | OpenFOAM: The Open Source CFD Toolbox
   \\    /   O peration     | Website:  https://openfoam.org
    \\  /    A nd           | Version:  13
     \\/     M anipulation  |
\*---------------------------------------------------------------------------*/
FoamFile
{
    format      ascii;
    class       volVectorField;
    location    "10";
    object      U_0;
}
// * * * * * * * * * * * * * * * * * * * * * * * * * * * * * * * * * * * * * //

dimensions      [0 1 -1 0 0 0 0];

internalField   nonuniform List<vector> 
400
(
(0.00020676 -0.000207017 0)
(-0.000102862 -1.15225e-05 0)
(-0.00150224 0.000201293 0)
(-0.00371019 0.000336357 0)
(-0.00640836 0.000406995 0)
(-0.00930779 0.000433976 0)
(-0.0121647 0.000427713 0)
(-0.0147521 0.000387908 0)
(-0.0168363 0.000308354 0)
(-0.0181773 0.000183638 0)
(-0.0185539 1.59255e-05 0)
(-0.0178123 -0.000182366 0)
(-0.0159243 -0.000380274 0)
(-0.0130375 -0.000537054 0)
(-0.00949798 -0.000609356 0)
(-0.00582129 -0.000565207 0)
(-0.00260427 -0.00039771 0)
(-0.000373285 -0.000136629 0)
(0.000561124 0.000136429 0)
(0.000312735 0.000299735 0)
(-8.36781e-08 0.000100251 0)
(-0.00198586 0.00184827 0)
(-0.00629737 0.00360232 0)
(-0.0123021 0.00481245 0)
(-0.0193028 0.00545062 0)
(-0.0266606 0.005586 0)
(-0.033787 0.00526836 0)
(-0.0401173 0.00450567 0)
(-0.045089 0.00328928 0)
(-0.0481592 0.00163727 0)
(-0.0488671 -0.000362655 0)
(-0.0469235 -0.0025271 0)
(-0.04232 -0.00457099 0)
(-0.0354194 -0.00614544 0)
(-0.026981 -0.00690901 0)
(-0.0181032 -0.00662944 0)
(-0.0100501 -0.00528858 0)
(-0.00396892 -0.00315954 0)
(-0.00054604 -0.000859726 0)
(0.00023641 0.000589091 0)
(-0.000272909 0.0016603 0)
(-0.0042949 0.00631611 0)
(-0.0115748 0.0104022 0)
(-0.0210628 0.0131632 0)
(-0.0317542 0.0145592 0)
(-0.0427821 0.0147059 0)
(-0.0533279 0.0136898 0)
(-0.0625982 0.0115345 0)
(-0.069813 0.00825307 0)
(-0.0742377 0.00393592 0)
(-0.0752637 -0.00116666 0)
(-0.0725182 -0.00659424 0)
(-0.0659899 -0.0116807 0)
(-0.0561369 -0.0156292 0)
(-0.0439329 -0.0176655 0)
(-0.0308172 -0.0172548 0)
(-0.0185023 -0.0143359 0)
(-0.00862474 -0.0094964 0)
(-0.00231571 -0.00403086 0)
(8.36377e-05 3.22007e-05 0)
(-0.00051957 0.00446187 0)
(-0.00652554 0.0133397 0)
(-0.0166574 0.0203893 0)
(-0.0293774 0.0249683 0)
(-0.0433766 0.0271498 0)
(-0.0576185 0.0271383 0)
(-0.0711376 0.0250683 0)
(-0.0830008 0.0209851 0)
(-0.0922914 0.0149372 0)
(-0.0981431 0.00711072 0)
(-0.0998223 -0.00204747 0)
(-0.0968398 -0.0117594 0)
(-0.0890892 -0.0209118 0)
(-0.0769847 -0.0281713 0)
(-0.0615548 -0.0322099 0)
(-0.0444533 -0.0320503 0)
(-0.0278024 -0.0274687 0)
(-0.0138092 -0.0193224 0)
(-0.00424709 -0.00963839 0)
(-3.98727e-05 -0.00148248 0)
(-0.000731372 0.00841023 0)
(-0.00853175 0.0227362 0)
(-0.021266 0.0332983 0)
(-0.0369176 0.0398727 0)
(-0.0538937 0.0428114 0)
(-0.0710328 0.0424821 0)
(-0.0872866 0.0390933 0)
(-0.101652 0.0327167 0)
(-0.113135 0.0234312 0)
(-0.120767 0.0115069 0)
(-0.123681 -0.00242938 0)
(-0.121203 -0.0172982 0)
(-0.113011 -0.031525 0)
(-0.0993153 -0.0431776 0)
(-0.0810357 -0.0502329 0)
(-0.0599292 -0.0510531 0)
(-0.0385348 -0.0450089 0)
(-0.0197946 -0.033061 0)
(-0.00640879 -0.0179705 0)
(-0.000143295 -0.00400176 0)
(-0.000906806 0.0133579 0)
(-0.0102381 0.0342344 0)
(-0.0252202 0.0488153 0)
(-0.0434204 0.0575551 0)
(-0.0630082 0.0612507 0)
(-0.0827426 0.0605219 0)
(-0.101549 0.0556862 0)
(-0.118415 0.0468425 0)
(-0.132316 0.0340751 0)
(-0.142211 0.0176887 0)
(-0.147085 -0.00157927 0)
(-0.146013 -0.0223857 0)
(-0.138329 -0.0427609 0)
(-0.123875 -0.0601277 0)
(-0.10326 -0.0716029 0)
(-0.0781762 -0.0745791 0)
(-0.0515301 -0.067623 0)
(-0.0271613 -0.0514703 0)
(-0.00907002 -0.0295636 0)
(-0.000261057 -0.0076775 0)
(-0.00104082 0.0191252 0)
(-0.0115765 0.0474777 0)
(-0.0283525 0.0665217 0)
(-0.0486102 0.0776004 0)
(-0.0703434 0.0821058 0)
(-0.0922793 0.0810002 0)
(-0.113371 0.0747499 0)
(-0.132654 0.0634797 0)
(-0.149132 0.0472395 0)
(-0.161729 0.0262949 0)
(-0.169268 0.00139114 0)
(-0.170565 -0.026009 0)
(-0.164543 -0.0536119 0)
(-0.150478 -0.0782144 0)
(-0.128438 -0.0959304 0)
(-0.0997716 -0.102816 0)
(-0.067556 -0.0960566 0)
(-0.0365805 -0.0755761 0)
(-0.012584 -0.045273 0)
(-0.000437179 -0.0128376 0)
(-0.00112634 0.0254965 0)
(-0.0124793 0.0620265 0)
(-0.0304956 0.0858879 0)
(-0.05219 0.0994666 0)
(-0.0754448 0.104876 0)
(-0.0990011 0.103509 0)
(-0.12189 0.0960241 0)
(-0.143254 0.0825733 0)
(-0.162188 0.06313 0)
(-0.177649 0.0378319 0)
(-0.188384 0.00730055 0)
(-0.192958 -0.0270705 0)
(-0.189841 -0.0628074 0)
(-0.177662 -0.0961995 0)
(-0.155685 -0.122308 0)
(-0.124527 -0.135507 0)
(-0.0870047 -0.130872 0)
(-0.048653 -0.106554 0)
(-0.0173429 -0.0662794 0)
(-0.000726539 -0.0200144 0)
(-0.00115912 0.0322215 0)
(-0.0128994 0.0773628 0)
(-0.0315168 0.106267 0)
(-0.0538907 0.122453 0)
(-0.0778484 0.128857 0)
(-0.102184 0.127384 0)
(-0.126052 0.11894 0)
(-0.148763 0.103717 0)
(-0.169585 0.0815788 0)
(-0.187603 0.0524519 0)
(-0.201609 0.0166907 0)
(-0.210036 -0.0245505 0)
(-0.210993 -0.06889 0)
(-0.202443 -0.112352 0)
(-0.18265 -0.149078 0)
(-0.15105 -0.171572 0)
(-0.109525 -0.172033 0)
(-0.063725 -0.145449 0)
(-0.0237543 -0.0940136 0)
(-0.00120487 -0.0299642 0)
(-0.00114525 0.0390367 0)
(-0.0128496 0.0929189 0)
(-0.0313858 0.12691 0)
(-0.0535665 0.145688 0)
(-0.0772057 0.153094 0)
(-0.101184 0.151632 0)
(-0.124823 0.142515 0)
(-0.14766 0.126011 0)
(-0.169222 0.101873 0)
(-0.188852 0.0697622 0)
(-0.205547 0.0296523 0)
(-0.217813 -0.0177451 0)
(-0.223613 -0.0704278 0)
(-0.220384 -0.124558 0)
(-0.205351 -0.173742 0)
(-0.176384 -0.208756 0)
(-0.133597 -0.218368 0)
(-0.0816133 -0.192705 0)
(-0.0322001 -0.12997 0)
(-0.00198581 -0.0436839 0)
(-0.00111158 0.0457125 0)
(-0.0124555 0.108143 0)
(-0.0302652 0.147016 0)
(-0.0513197 0.168155 0)
(-0.0734488 0.17639 0)
(-0.0956587 0.174908 0)
(-0.117485 0.165312 0)
(-0.138747 0.147999 0)
(-0.159315 0.122647 0)
(-0.178915 0.0886506 0)
(-0.196936 0.045548 0)
(-0.212201 -0.00653959 0)
(-0.222854 -0.0663672 0)
(-0.226144 -0.13065 0)
(-0.21844 -0.193139 0)
(-0.195921 -0.243495 0)
(-0.156164 -0.267054 0)
(-0.101218 -0.247491 0)
(-0.0429286 -0.175338 0)
(-0.00324372 -0.0624136 0)
(-0.00112106 0.0521369 0)
(-0.012023 0.122608 0)
(-0.0286125 0.165816 0)
(-0.0476306 0.188751 0)
(-0.0669505 0.197346 0)
(-0.0857762 0.195573 0)
(-0.10392 0.185498 0)
(-0.121545 0.167726 0)
(-0.138925 0.141916 0)
(-0.15626 0.107253 0)
(-0.173479 0.0628483 0)
(-0.190039 0.00815523 0)
(-0.204561 -0.056513 0)
(-0.214521 -0.128983 0)
(-0.216019 -0.203985 0)
(-0.2038 -0.271188 0)
(-0.172537 -0.313357 0)
(-0.120101 -0.306939 0)
(-0.0558249 -0.230386 0)
(-0.00523508 -0.0875879 0)
(-0.00129933 0.0584484 0)
(-0.0121294 0.136165 0)
(-0.027282 0.182692 0)
(-0.0434523 0.206371 0)
(-0.0586166 0.214452 0)
(-0.0723232 0.211795 0)
(-0.0847705 0.200996 0)
(-0.0965281 0.182919 0)
(-0.108318 0.15728 0)
(-0.120856 0.123137 0)
(-0.13469 0.0792601 0)
(-0.149999 0.0244777 0)
(-0.166242 -0.0418431 0)
(-0.181699 -0.119064 0)
(-0.19286 -0.203718 0)
(-0.19385 -0.286976 0)
(-0.176772 -0.350913 0)
(-0.13423 -0.365596 0)
(-0.0700169 -0.293576 0)
(-0.0082951 -0.120667 0)
(-0.00188346 0.0652423 0)
(-0.0137508 0.149119 0)
(-0.0276038 0.197255 0)
(-0.0402107 0.219946 0)
(-0.049806 0.226133 0)
(-0.0565645 0.221659 0)
(-0.0612479 0.209652 0)
(-0.0649167 0.191235 0)
(-0.0687525 0.16622 0)
(-0.0739597 0.133624 0)
(-0.0816721 0.0920158 0)
(-0.0928124 0.0397684 0)
(-0.107818 -0.0246304 0)
(-0.126168 -0.102057 0)
(-0.145572 -0.191424 0)
(-0.160756 -0.286933 0)
(-0.162495 -0.372712 0)
(-0.138084 -0.415475 0)
(-0.0833409 -0.360584 0)
(-0.0127596 -0.162765 0)
(-0.00332481 0.0739312 0)
(-0.0184383 0.16243 0)
(-0.0313471 0.209376 0)
(-0.0395166 0.228403 0)
(-0.0418188 0.230729 0)
(-0.0395471 0.223197 0)
(-0.0342832 0.209339 0)
(-0.0276759 0.190436 0)
(-0.0213529 0.166356 0)
(-0.0169265 0.136119 0)
(-0.0159971 0.0982197 0)
(-0.0201099 0.050805 0)
(-0.0306216 -0.00818752 0)
(-0.048348 -0.0808346 0)
(-0.0728398 -0.168424 0)
(-0.100775 -0.269248 0)
(-0.123716 -0.372531 0)
(-0.125032 -0.446876 0)
(-0.0917724 -0.423461 0)
(-0.0187091 -0.213918 0)
(-0.00639981 0.0871945 0)
(-0.0283798 0.177509 0)
(-0.0401208 0.218643 0)
(-0.0419236 0.230098 0)
(-0.0341417 0.226042 0)
(-0.0199726 0.214076 0)
(-0.00212921 0.197782 0)
(0.0170775 0.178331 0)
(0.0356315 0.155515 0)
(0.0516449 0.128338 0)
(0.0632258 0.0953104 0)
(0.0684182 0.0545772 0)
(0.0651673 0.00393371 0)
(0.0514987 -0.0592889 0)
(0.0258797 -0.138072 0)
(-0.011276 -0.234833 0)
(-0.054934 -0.346286 0)
(-0.0873749 -0.449559 0)
(-0.0888437 -0.470042 0)
(-0.0253278 -0.271737 0)
(-0.0125462 0.110593 0)
(-0.0455176 0.196356 0)
(-0.0521794 0.223807 0)
(-0.0420846 0.222128 0)
(-0.0187142 0.208757 0)
(0.0118516 0.191205 0)
(0.0456375 0.172331 0)
(0.0798175 0.152711 0)
(0.11222 0.131819 0)
(0.140928 0.108564 0)
(0.16401 0.0815263 0)
(0.179372 0.0490221 0)
(0.184565 0.00906002 0)
(0.176894 -0.0409533 0)
(0.153263 -0.104536 0)
(0.111214 -0.18696 0)
(0.050207 -0.292941 0)
(-0.01501 -0.414099 0)
(-0.0646716 -0.484688 0)
(-0.0296294 -0.330123 0)
(-0.0216038 0.148518 0)
(-0.0653607 0.213065 0)
(-0.0498141 0.214746 0)
(-0.0138268 0.194548 0)
(0.034689 0.170965 0)
(0.0871586 0.148966 0)
(0.139392 0.129319 0)
(0.188973 0.111406 0)
(0.234281 0.0941716 0)
(0.273899 0.0764161 0)
(0.306271 0.0568738 0)
(0.329536 0.0341915 0)
(0.34123 0.00683007 0)
(0.338509 -0.0271814 0)
(0.317433 -0.0708207 0)
(0.273796 -0.129959 0)
(0.201503 -0.2148 0)
(0.107458 -0.334837 0)
(-0.00346787 -0.451307 0)
(-0.0233073 -0.378589 0)
(-0.0274427 0.229439 0)
(-0.036442 0.22319 0)
(0.0465152 0.176888 0)
(0.126787 0.138546 0)
(0.205051 0.109223 0)
(0.276625 0.0875801 0)
(0.340642 0.0713206 0)
(0.397119 0.0584042 0)
(0.446133 0.0473118 0)
(0.487451 0.0368782 0)
(0.520368 0.0261368 0)
(0.543658 0.0142173 0)
(0.555339 0.000230597 0)
(0.553058 -0.016814 0)
(0.53276 -0.0389025 0)
(0.49017 -0.0703331 0)
(0.415034 -0.120881 0)
(0.304701 -0.213366 0)
(0.125752 -0.34831 0)
(0.0236352 -0.37877 0)
(0.214471 0.135828 0)
(0.285236 0.0984874 0)
(0.444765 0.0569317 0)
(0.547957 0.0365753 0)
(0.621571 0.024143 0)
(0.677993 0.0162886 0)
(0.722408 0.0113086 0)
(0.757876 0.0079918 0)
(0.78625 0.00557428 0)
(0.808428 0.00358823 0)
(0.824592 0.00172342 0)
(0.834404 -0.000235219 0)
(0.836979 -0.00247806 0)
(0.83099 -0.00502525 0)
(0.813458 -0.00848465 0)
(0.781927 -0.0135001 0)
(0.7241 -0.0231831 0)
(0.635293 -0.0406128 0)
(0.431311 -0.0913056 0)
(0.270896 -0.153528 0)
)
;

boundaryField
{
    movingWall
    {
        type            calculated;
        value           uniform (1 0 0);
    }
    fixedWalls
    {
        type            calculated;
        value           uniform (0 0 0);
    }
    frontAndBack
    {
        type            empty;
    }
}


// ************************************************************************* //
