/*--------------------------------*- C++ -*----------------------------------*\
  =========                 |
  \\      /  F ield         | OpenFOAM: The Open Source CFD Toolbox
   \\    /   O peration     | Website:  https://openfoam.org
    \\  /    A nd           | Version:  13
     \\/     M anipulation  |
\*---------------------------------------------------------------------------*/
FoamFile
{
    format      ascii;
    class       volScalarField;
    location    "26";
    object      p;
}
// * * * * * * * * * * * * * * * * * * * * * * * * * * * * * * * * * * * * * //

dimensions      [0 2 -2 0 0 0 0];

internalField   nonuniform List<scalar> 
400
(
7.59348e-07
-0.000571676
-0.00121525
-0.0017181
-0.00195843
-0.0018839
-0.00146968
-0.000704712
0.000402113
0.00180676
0.00341549
0.00507581
0.00659184
0.0077519
0.0083806
0.00839645
0.00785618
0.00696976
0.00604888
0.0054952
0.000570677
-1.9583e-05
-0.000568947
-0.000956281
-0.00113125
-0.0010612
-0.000725196
-0.000108448
0.000789579
0.00194026
0.0032706
0.00466093
0.00594151
0.00693062
0.00747506
0.00750262
0.00706007
0.00631971
0.00554414
0.00497352
0.00124642
0.000493699
-8.60017e-05
-0.000440628
-0.000605391
-0.00057552
-0.000336501
0.00013338
0.000850498
0.00180771
0.00295567
0.00419262
0.00536526
0.00629465
0.00682009
0.00685375
0.00642162
0.00566907
0.00480983
0.00403808
0.0017413
0.000764423
7.43843e-05
-0.000321213
-0.000536372
-0.000591965
-0.000477446
-0.000159356
0.000400849
0.00122292
0.00228253
0.00349372
0.00470257
0.00571059
0.00632027
0.00639904
0.0059344
0.00505147
0.00394932
0.00284536
0.00179618
0.000596467
-0.000226957
-0.000704084
-0.00101739
-0.00120645
-0.00125855
-0.00112217
-0.000729635
-2.69436e-05
0.000992651
0.0022645
0.00363097
0.00486215
0.00569959
0.00593324
0.00548133
0.00443642
0.00300088
0.00146305
0.00119541
-0.000202278
-0.00116252
-0.00175193
-0.00221062
-0.00258985
-0.0028684
-0.0029703
-0.00279099
-0.00223197
-0.00124309
0.000151499
0.00179382
0.0034208
0.00469118
0.00527569
0.00497287
0.00380665
0.00197999
-0.00010305
-0.000240884
-0.00179933
-0.00289145
-0.0036214
-0.00427686
-0.00491575
-0.00550414
-0.00593656
-0.00606354
-0.0057274
-0.00480585
-0.00328411
-0.00126928
0.000947734
0.00292731
0.00417087
0.00428026
0.00313655
0.000903628
-0.00185522
-0.00265115
-0.00432555
-0.00554042
-0.00643841
-0.0073462
-0.00832677
-0.00933286
-0.0102277
-0.0108101
-0.0108493
-0.0101324
-0.00853781
-0.00610589
-0.00311112
-8.53258e-05
0.00225611
0.0032137
0.00239632
-0.000176318
-0.00375188
-0.00612049
-0.00786084
-0.00918384
-0.0102709
-0.011482
-0.0128883
-0.0144333
-0.0159517
-0.0171884
-0.0178264
-0.017534
-0.0160414
-0.0132518
-0.00935626
-0.00493484
-0.000940271
0.00150918
0.00155566
-0.00113607
-0.0056457
-0.0106706
-0.0124227
-0.0138265
-0.015101
-0.0166411
-0.0185347
-0.0207259
-0.0230292
-0.0251391
-0.0266478
-0.0270827
-0.0259761
-0.0230328
-0.0182528
-0.0121665
-0.00592092
-0.00114113
0.000604135
-0.00173029
-0.00719403
-0.0162595
-0.0179643
-0.0193947
-0.0208051
-0.0226404
-0.0250222
-0.02791
-0.0311101
-0.0342761
-0.0369124
-0.0383938
-0.0380051
-0.0352826
-0.0298321
-0.0220038
-0.0130051
-0.00495861
-0.000374425
-0.00151491
-0.00771955
-0.0228019
-0.024389
-0.0257416
-0.0271473
-0.0291423
-0.0319094
-0.0354411
-0.039548
-0.0438534
-0.0477831
-0.0505784
-0.0513756
-0.0491619
-0.0433925
-0.0339875
-0.0219764
-0.0098047
-0.00102361
0.000281158
-0.00599889
-0.0302214
-0.0315851
-0.0326685
-0.0337909
-0.0356669
-0.0385786
-0.0425676
-0.0474536
-0.0528328
-0.0580611
-0.0622495
-0.064309
-0.0630208
-0.0573306
-0.0466915
-0.0317037
-0.0147999
-0.000415936
0.00496669
2.38701e-05
-0.0385588
-0.0394883
-0.0399601
-0.0403258
-0.0416338
-0.0443083
-0.0484442
-0.0538579
-0.0601044
-0.0664639
-0.0719279
-0.07522
-0.0748689
-0.06942
-0.0578058
-0.0400009
-0.0180221
0.00328062
0.0146996
0.0135567
-0.0481736
-0.0481558
-0.0474023
-0.046283
-0.0464109
-0.04837
-0.0522802
-0.0579118
-0.064738
-0.0719339
-0.0783592
-0.0825599
-0.0828309
-0.0773726
-0.0646441
-0.0439359
-0.0165425
0.0130198
0.032932
0.0392816
-0.0602338
-0.0579566
-0.0548661
-0.0512124
-0.0494261
-0.0501773
-0.0535191
-0.0590924
-0.0662187
-0.0739174
-0.0808781
-0.0854521
-0.0857058
-0.0795188
-0.064941
-0.0406104
-0.00697802
0.0328176
0.0647946
0.0836776
-0.0774803
-0.0694722
-0.0620865
-0.0545485
-0.050138
-0.0493241
-0.0519033
-0.0572598
-0.064485
-0.0723837
-0.0794387
-0.0837772
-0.0832174
-0.075282
-0.0576206
-0.0282105
0.0133531
0.0666617
0.115753
0.154808
-0.108925
-0.0850391
-0.0697725
-0.0563907
-0.0485402
-0.0458802
-0.0476232
-0.0527139
-0.059916
-0.0677758
-0.0745512
-0.0781389
-0.0761034
-0.0655417
-0.0436425
-0.0074444
0.0447437
0.114933
0.188079
0.263281
-0.168692
-0.100745
-0.0730923
-0.0522874
-0.0413095
-0.0376989
-0.0394411
-0.0448644
-0.0524147
-0.0604458
-0.0670728
-0.0700468
-0.0666865
-0.0537875
-0.0278891
0.0154105
0.0800722
0.172761
0.285855
0.445986
-0.402753
-0.13903
-0.0734584
-0.0447294
-0.0305711
-0.0266168
-0.0290847
-0.0353725
-0.043653
-0.0522063
-0.0591229
-0.0621445
-0.0586165
-0.0452131
-0.0174501
0.0310794
0.108496
0.236657
0.427488
0.79368
)
;

boundaryField
{
    movingWall
    {
        type            zeroGradient;
    }
    fixedWalls
    {
        type            zeroGradient;
    }
    frontAndBack
    {
        type            empty;
    }
}


// ************************************************************************* //
