/*--------------------------------*- C++ -*----------------------------------*\
  =========                 |
  \\      /  F ield         | OpenFOAM: The Open Source CFD Toolbox
   \\    /   O peration     | Website:  https://openfoam.org
    \\  /    A nd           | Version:  13
     \\/     M anipulation  |
\*---------------------------------------------------------------------------*/
FoamFile
{
    format      ascii;
    class       surfaceScalarField;
    location    "26";
    object      phi_0;
}
// * * * * * * * * * * * * * * * * * * * * * * * * * * * * * * * * * * * * * //

dimensions      [0 3 -1 0 0 0 0];

internalField   nonuniform List<scalar> 
760
(
4.3927e-06
-4.40105e-06
-3.89748e-05
4.33675e-05
-0.000131157
9.21824e-05
-0.000256588
0.000125431
-0.000399489
0.000142901
-0.000546405
0.000146915
-0.000685395
0.00013899
-0.000804693
0.000119298
-0.00089214
8.74472e-05
-0.000935888
4.37482e-05
-0.000926234
-9.65469e-06
-0.00085856
-6.76738e-05
-0.000735927
-0.000122633
-0.000571084
-0.000164843
-0.000386251
-0.000184833
-0.000210072
-0.000176179
-7.16532e-05
-0.000138418
7.52982e-06
-7.91831e-05
2.35965e-05
-1.60668e-05
2.35965e-05
-4.70774e-05
4.26763e-05
-0.000210002
0.000206291
-0.000473789
0.00035597
-0.00080602
0.000457661
-0.00117278
0.000509662
-0.00154261
0.00051674
-0.001886
0.000482385
-0.00217409
0.000407392
-0.00237858
0.000291932
-0.00247376
0.000138924
-0.00244066
-4.27517e-05
-0.00227172
-0.000236613
-0.00197638
-0.000417976
-0.00158358
-0.000557642
-0.0011411
-0.000627307
-0.000709509
-0.000607772
-0.000350412
-0.000497516
-0.000110604
-0.000318991
-5.66904e-06
-0.000121001
1.79274e-05
-0.000111452
0.000154128
-0.000405321
0.000500161
-0.000834751
0.000785399
-0.00135037
0.000973285
-0.0019053
0.00106458
-0.00245605
0.00106749
-0.00296134
0.000987679
-0.00338091
0.000826956
-0.00367607
0.00058709
-0.00381264
0.000275501
-0.00376589
-8.95031e-05
-0.00352638
-0.000476123
-0.00310597
-0.000838391
-0.00254158
-0.00112203
-0.00189515
-0.00127374
-0.00124729
-0.00125563
-0.000683474
-0.00106133
-0.000273874
-0.00072859
-5.21076e-05
-0.000342768
-3.41802e-05
-0.000173175
0.000327303
-0.00059371
0.000920696
-0.00117947
0.00137116
-0.00186212
0.00165594
-0.00258341
0.00178588
-0.00329157
0.00177565
-0.00393798
0.00163409
-0.0044754
0.00136438
-0.00485848
0.000970175
-0.00504673
0.000463748
-0.00500948
-0.000126753
-0.00473209
-0.000753511
-0.00422294
-0.00134754
-0.00351918
-0.00182579
-0.00268944
-0.00210347
-0.00183012
-0.00211496
-0.00105163
-0.00183982
-0.000454578
-0.00132564
-0.000101959
-0.000695386
-0.000136139
-0.000228303
0.000555606
-0.000763702
0.0014561
-0.00149119
0.00209865
-0.00232414
0.00248888
-0.00319456
0.0026563
-0.0040452
0.00262629
-0.00482362
0.00241251
-0.00547897
0.00201973
-0.0059616
0.00145281
-0.00622523
0.000727372
-0.00623137
-0.000120608
-0.00595533
-0.00102955
-0.00539486
-0.00190802
-0.00457895
-0.0026417
-0.00357586
-0.00310657
-0.0024949
-0.00319592
-0.00147579
-0.00285893
-0.000660967
-0.00214046
-0.000156597
-0.00119976
-0.000292736
-0.00027479
0.000830396
-0.000908223
0.00208953
-0.00175765
0.00294808
-0.00272087
0.0034521
-0.00372246
0.00365788
-0.00470235
0.00360618
-0.00560729
0.00331745
-0.00638567
0.0027981
-0.00698549
0.00205263
-0.00735496
0.00109684
-0.00744596
-2.96056e-05
-0.00721869
-0.00125682
-0.006653
-0.00247371
-0.00576024
-0.00353446
-0.00459875
-0.00426806
-0.00328508
-0.00450959
-0.00199095
-0.00415306
-0.000914132
-0.00321728
-0.000223258
-0.00189063
-0.000515994
-0.00031071
0.00114111
-0.00102089
0.0027997
-0.00196693
0.00389412
-0.00303491
0.00452008
-0.00414468
0.00476765
-0.00523601
0.00469752
-0.00625769
0.00433912
-0.00716019
0.0037006
-0.00789156
0.00278401
-0.00839593
0.00160121
-0.00861409
0.000188549
-0.00848984
-0.00138107
-0.00797779
-0.00298575
-0.00706149
-0.00445076
-0.0057762
-0.00555335
-0.00423339
-0.0060524
-0.00263278
-0.00575366
-0.00123952
-0.00461054
-0.000311403
-0.00281875
-0.000827398
-0.000334152
0.00147526
-0.00109554
0.00356109
-0.00210697
0.00490556
-0.00324689
0.00566
-0.00443316
0.00595392
-0.00560784
0.0058722
-0.00672451
0.0054558
-0.0077389
0.004715
-0.00860246
0.00364757
-0.00925831
0.00225706
-0.00963965
0.000569884
-0.00967256
-0.00134816
-0.00928427
-0.00337405
-0.00842119
-0.00531384
-0.00707918
-0.00689536
-0.00534354
-0.00778804
-0.0034256
-0.00767161
-0.00166169
-0.00637445
-0.000431578
-0.00404886
-0.00125898
-0.000343863
0.00181912
-0.00112766
0.00434489
-0.00216775
0.00594565
-0.00333854
0.00683079
-0.00455824
0.00717361
-0.00577341
0.00708737
-0.0069451
0.00662749
-0.00803774
0.00580764
-0.00901066
0.0046205
-0.00981157
0.00305797
-0.0103719
0.00113021
-0.0106057
-0.00111438
-0.0104147
-0.00356504
-0.00970326
-0.00602526
-0.00841164
-0.00818697
-0.00657027
-0.00962941
-0.0043686
-0.00987328
-0.00219923
-0.00854382
-0.000595129
-0.00565296
-0.00185411
-0.000340397
0.00215952
-0.0011171
0.0051216
-0.00214538
0.00697393
-0.0032982
0.0079836
-0.00449603
0.00837144
-0.0056919
0.00828324
-0.00685684
0.00779242
-0.0079676
0.0069184
-0.00899664
0.00564953
-0.00990351
0.00396484
-0.0106273
0.00185397
-0.0110799
-0.000661705
-0.0111478
-0.00349716
-0.0106958
-0.00647725
-0.00959828
-0.00928453
-0.00780009
-0.0114276
-0.00541864
-0.0122547
-0.00285705
-0.0111054
-0.000813801
-0.00769621
-0.00266791
-0.000327668
0.00248719
-0.00107161
0.00586554
-0.00204751
0.00794983
-0.00312809
0.00906417
-0.00423799
0.00948135
-0.00533893
0.00938418
-0.00641444
0.00886793
-0.00745703
0.00796099
-0.00845738
0.00664989
-0.00939457
0.00490203
-0.0102266
0.00268603
-0.0108749
-1.34761e-05
-0.0112316
-0.00314041
-0.0111328
-0.00657604
-0.01039
-0.0100273
-0.00884066
-0.012977
-0.00647168
-0.0146237
-0.00361422
-0.0139629
-0.00109821
-0.0102122
-0.00376611
-0.000315007
0.00280219
-0.00101102
0.00656155
-0.00189906
0.00883787
-0.00285141
0.0100165
-0.00380001
0.01043
-0.00471869
0.0103029
-0.00560657
0.00975582
-0.00647483
0.00882924
-0.0073361
0.00751116
-0.00819484
0.00576077
-0.00903627
0.00352746
-0.0098182
0.000768458
-0.0104385
-0.00252009
-0.0107416
-0.00627295
-0.0104956
-0.0102733
-0.00942919
-0.0140434
-0.0073503
-0.0167026
-0.00440755
-0.0169056
-0.00145377
-0.013166
-0.00521988
-0.000320154
0.00312235
-0.000972029
0.00721343
-0.00174704
0.00961287
-0.00251685
0.0107863
-0.00322712
0.0111402
-0.00387021
0.010946
-0.00446524
0.0103508
-0.00504466
0.00940865
-0.00564492
0.00811142
-0.00629851
0.00641436
-0.00702461
0.00425356
-0.00781663
0.00156049
-0.00861888
-0.00171785
-0.00930328
-0.00558855
-0.00963538
-0.00994118
-0.00926555
-0.0144133
-0.00780702
-0.0181611
-0.00511449
-0.0195982
-0.00187244
-0.016408
-0.00709232
-0.000374074
0.00349642
-0.00101324
0.0078526
-0.00166246
0.0102621
-0.00219635
0.0113202
-0.00258769
0.0115316
-0.00285866
0.0112169
-0.00305487
0.0105471
-0.00323238
0.00958617
-0.003451
0.00833004
-0.00376952
0.00673287
-0.00423987
0.00472391
-0.00489726
0.00221788
-0.00574102
-0.000874094
-0.00670351
-0.00462605
-0.0075986
-0.0090461
-0.00806162
-0.0139502
-0.00754677
-0.018676
-0.00554238
-0.0216025
-0.00231876
-0.0196317
-0.00941108
-0.000529452
0.00402587
-0.00121873
0.00854187
-0.00173231
0.0107757
-0.0019652
0.0115531
-0.00194336
0.0115097
-0.00173669
0.0110103
-0.00142612
0.0102365
-0.00109338
0.00925343
-0.000819264
0.00805592
-0.000683801
0.00659741
-0.000765312
0.00480542
-0.00113637
0.00258894
-0.00185256
-0.000157905
-0.00292501
-0.0035536
-0.00426458
-0.00770653
-0.00557762
-0.0126372
-0.00625526
-0.0179983
-0.00542588
-0.0224319
-0.00270917
-0.0223484
-0.0121202
-0.000868738
0.00489461
-0.00168417
0.0093573
-0.00201353
0.011105
-0.00182743
0.011367
-0.00125259
0.0109349
-0.000432161
0.0101898
0.000508146
0.00929618
0.00146075
0.00830083
0.00232844
0.00718823
0.00301736
0.00590849
0.00343188
0.0043909
0.00347248
0.00254834
0.00303755
0.000277027
0.00203943
-0.00255548
0.000444107
-0.00611121
-0.00160999
-0.0105831
-0.00360096
-0.0160074
-0.00441536
-0.0216175
-0.00288084
-0.0238829
-0.0150011
-0.00149474
0.00638936
-0.00241124
0.0102738
-0.00233098
0.0110248
-0.00145109
0.0104871
-7.61983e-05
0.00956
0.00155321
0.00856041
0.00326662
0.00758277
0.00493951
0.00662794
0.00647009
0.00565764
0.00776287
0.00461572
0.00871771
0.00343606
0.00922256
0.00204349
0.00914722
0.000352363
0.00834959
-0.00175785
0.00668346
-0.00444507
0.00408869
-0.00798833
0.000840735
-0.0127594
-0.00200517
-0.0187716
-0.00250292
-0.0233851
-0.017504
-0.00234101
0.00873036
-0.00281991
0.0107527
-0.00158541
0.00979028
0.000573841
0.00832787
0.00312126
0.00701258
0.0057579
0.00592377
0.00831746
0.0050232
0.0106989
0.00424652
0.0128261
0.00353041
0.0146252
0.00281669
0.0160107
0.00205052
0.016877
0.00117722
0.0170878
0.000141513
0.0164809
-0.00115095
0.0148419
-0.00280602
0.0119354
-0.00508186
0.00764979
-0.00847381
0.002612
-0.0137338
-0.000908531
-0.0198646
-0.0184125
-0.00200263
0.010733
0.000357661
0.0083924
0.00431899
0.00582896
0.00833386
0.004313
0.0120918
0.00325467
0.015494
0.00252149
0.0185181
0.00199915
0.0211645
0.00160008
0.0234281
0.0012668
0.0252852
0.000959615
0.0266875
0.000648206
0.0275563
0.000308419
0.0277823
-8.44244e-05
0.0272132
-0.000581871
0.0256275
-0.00122032
0.0226957
-0.00215009
0.0179511
-0.00372918
0.01095
-0.00673275
0.00302462
-0.0119392
-0.0153879
0.010733
0.0191254
0.0249544
0.0292674
0.032522
0.0350435
0.0370427
0.0386428
0.0399096
0.0408692
0.0415174
0.0418258
0.0417414
0.0411595
0.0399392
0.0377891
0.0340599
0.0273272
0.0153879
)
;

boundaryField
{
    movingWall
    {
        type            calculated;
        value           uniform 0;
    }
    fixedWalls
    {
        type            calculated;
        value           uniform 0;
    }
    frontAndBack
    {
        type            empty;
    }
}


// ************************************************************************* //
