/*--------------------------------*- C++ -*----------------------------------*\
  =========                 |
  \\      /  F ield         | OpenFOAM: The Open Source CFD Toolbox
   \\    /   O peration     | Website:  https://openfoam.org
    \\  /    A nd           | Version:  13
     \\/     M anipulation  |
\*---------------------------------------------------------------------------*/
FoamFile
{
    format      ascii;
    class       volVectorField;
    location    "26";
    object      U;
}
// * * * * * * * * * * * * * * * * * * * * * * * * * * * * * * * * * * * * * //

dimensions      [0 1 -1 0 0 0 0];

internalField   nonuniform List<vector> 
400
(
(0.000213598 -0.000214066 0)
(-9.35979e-05 -1.49674e-05 0)
(-0.00151403 0.000202319 0)
(-0.00376289 0.000340564 0)
(-0.00651401 0.000413234 0)
(-0.00947194 0.000441471 0)
(-0.0123871 0.000435804 0)
(-0.0150264 0.000395726 0)
(-0.01715 0.000314732 0)
(-0.0185116 0.000187269 0)
(-0.0188849 1.56932e-05 0)
(-0.0181143 -0.000186996 0)
(-0.016174 -0.000388844 0)
(-0.0132183 -0.000547972 0)
(-0.00960419 -0.000620154 0)
(-0.00586037 -0.000573156 0)
(-0.00259521 -0.000400827 0)
(-0.000343899 -0.000134398 0)
(0.00058621 0.000143805 0)
(0.000320277 0.000307105 0)
(2.36943e-06 9.0958e-05 0)
(-0.00201784 0.00187324 0)
(-0.00641677 0.00366743 0)
(-0.0125494 0.00490686 0)
(-0.0197009 0.00556127 0)
(-0.0272164 0.00570089 0)
(-0.0344921 0.005376 0)
(-0.0409481 0.00459414 0)
(-0.0460074 0.00334657 0)
(-0.0491146 0.00165303 0)
(-0.0498009 -0.000394566 0)
(-0.0477762 -0.00260591 0)
(-0.0430399 -0.00468783 0)
(-0.0359708 -0.00628335 0)
(-0.0273514 -0.00704549 0)
(-0.0183063 -0.00674121 0)
(-0.0101237 -0.00535776 0)
(-0.00396724 -0.00318008 0)
(-0.0005224 -0.000840564 0)
(0.000244878 0.000614962 0)
(-0.00027783 0.00168045 0)
(-0.00439044 0.00643583 0)
(-0.0118375 0.010617 0)
(-0.0215424 0.0134427 0)
(-0.032474 0.0148699 0)
(-0.0437421 0.0150162 0)
(-0.0545062 0.0139693 0)
(-0.0639523 0.0117531 0)
(-0.0712819 0.00838312 0)
(-0.0757464 0.00395588 0)
(-0.0767298 -0.00126689 0)
(-0.0738614 -0.00680836 0)
(-0.067142 -0.0119852 0)
(-0.0570501 -0.0159839 0)
(-0.0445876 -0.0180192 0)
(-0.0312258 -0.017555 0)
(-0.0187077 -0.014541 0)
(-0.0086927 -0.00958929 0)
(-0.00231744 -0.00402872 0)
(8.96263e-05 6.81222e-05 0)
(-0.000532277 0.00454875 0)
(-0.00668692 0.0136269 0)
(-0.0170637 0.0208392 0)
(-0.0300821 0.0255193 0)
(-0.0443967 0.0277404 0)
(-0.0589429 0.0277113 0)
(-0.0727296 0.0255698 0)
(-0.0848007 0.0213643 0)
(-0.094221 0.0151495 0)
(-0.100111 0.00712452 0)
(-0.101733 -0.002244 0)
(-0.0986016 -0.0121512 0)
(-0.0906245 -0.021458 0)
(-0.078236 -0.0288062 0)
(-0.0624927 -0.0328509 0)
(-0.0450815 -0.0326111 0)
(-0.0281594 -0.0278782 0)
(-0.0139632 -0.0195455 0)
(-0.0042821 -0.00969306 0)
(-3.65322e-05 -0.00145196 0)
(-0.000750726 0.00859796 0)
(-0.00874847 0.0232564 0)
(-0.0217909 0.034057 0)
(-0.0378041 0.0407652 0)
(-0.0551501 0.0437416 0)
(-0.0726361 0.0433641 0)
(-0.089187 0.0398482 0)
(-0.103778 0.033273 0)
(-0.115397 0.0237295 0)
(-0.123069 0.011508 0)
(-0.125921 -0.00273735 0)
(-0.123288 -0.0178881 0)
(-0.114859 -0.0323409 0)
(-0.100861 -0.0441307 0)
(-0.0822366 -0.0512109 0)
(-0.060774 -0.0519351 0)
(-0.0390488 -0.0456885 0)
(-0.0200411 -0.0334751 0)
(-0.00648012 -0.0181269 0)
(-0.000142565 -0.00399511 0)
(-0.000930519 0.0136722 0)
(-0.0104902 0.0350359 0)
(-0.0258194 0.0499351 0)
(-0.0444173 0.0588355 0)
(-0.0644027 0.0625569 0)
(-0.0845017 0.0617378 0)
(-0.103614 0.0567092 0)
(-0.120708 0.0475834 0)
(-0.134748 0.0344636 0)
(-0.144687 0.0176828 0)
(-0.149505 -0.00198559 0)
(-0.148288 -0.0231682 0)
(-0.140384 -0.0438471 0)
(-0.125638 -0.0614106 0)
(-0.104677 -0.0729454 0)
(-0.0792149 -0.0758277 0)
(-0.0521953 -0.0686313 0)
(-0.0275016 -0.0521359 0)
(-0.00917942 -0.0298683 0)
(-0.000263177 -0.00771375 0)
(-0.00106575 0.0195791 0)
(-0.0118375 0.0485832 0)
(-0.0289679 0.0680249 0)
(-0.0496262 0.0792851 0)
(-0.0717532 0.0837962 0)
(-0.0940437 0.0825508 0)
(-0.115427 0.0760372 0)
(-0.134923 0.0644006 0)
(-0.15153 0.0477176 0)
(-0.164168 0.0262874 0)
(-0.171673 0.000895546 0)
(-0.172859 -0.0269625 0)
(-0.16665 -0.0549432 0)
(-0.152334 -0.0798079 0)
(-0.129981 -0.0976343 0)
(-0.100952 -0.104451 0)
(-0.0683493 -0.0974359 0)
(-0.0370094 -0.0765468 0)
(-0.0127326 -0.045772 0)
(-0.000442765 -0.0129367 0)
(-0.00114884 0.026087 0)
(-0.0127187 0.0634282 0)
(-0.0310615 0.0877617 0)
(-0.0531231 0.101538 0)
(-0.0767344 0.106928 0)
(-0.100606 0.105369 0)
(-0.123748 0.0975506 0)
(-0.145291 0.0836549 0)
(-0.164332 0.0636884 0)
(-0.179828 0.037827 0)
(-0.19054 0.00673254 0)
(-0.195035 -0.0281561 0)
(-0.191788 -0.0643322 0)
(-0.179428 -0.0980491 0)
(-0.157212 -0.124329 0)
(-0.125753 -0.137509 0)
(-0.0878758 -0.132634 0)
(-0.0491537 -0.107866 0)
(-0.0175294 -0.0670138 0)
(-0.00073653 -0.0201969 0)
(-0.00117555 0.0329289 0)
(-0.0130868 0.0790204 0)
(-0.0319674 0.108462 0)
(-0.0546387 0.124857 0)
(-0.0788823 0.131216 0)
(-0.103463 0.1295 0)
(-0.127521 0.120658 0)
(-0.150357 0.104922 0)
(-0.171244 0.082197 0)
(-0.189278 0.0524523 0)
(-0.203263 0.0160835 0)
(-0.211641 -0.0257178 0)
(-0.21253 -0.0705354 0)
(-0.203889 -0.11437 0)
(-0.183966 -0.151327 0)
(-0.152177 -0.173867 0)
(-0.110386 -0.174141 0)
(-0.0642609 -0.147109 0)
(-0.0239721 -0.0950118 0)
(-0.00122033 -0.0302496 0)
(-0.00115257 0.0398252 0)
(-0.0129583 0.0947615 0)
(-0.0316627 0.129342 0)
(-0.0540386 0.148338 0)
(-0.0778638 0.155676 0)
(-0.101994 0.153924 0)
(-0.125737 0.144354 0)
(-0.148626 0.127282 0)
(-0.170197 0.102511 0)
(-0.189806 0.0697504 0)
(-0.20647 0.0290144 0)
(-0.218706 -0.0189542 0)
(-0.224491 -0.0721146 0)
(-0.221268 -0.126631 0)
(-0.206234 -0.176087 0)
(-0.177228 -0.211217 0)
(-0.134323 -0.220726 0)
(-0.0821215 -0.194668 0)
(-0.0324334 -0.131235 0)
(-0.00200757 -0.0440872 0)
(-0.0011079 0.0465336 0)
(-0.0124662 0.110074 0)
(-0.0303248 0.149572 0)
(-0.0514475 0.170937 0)
(-0.0736407 0.179084 0)
(-0.0958908 0.177278 0)
(-0.117723 0.167185 0)
(-0.138955 0.149266 0)
(-0.159469 0.123255 0)
(-0.179007 0.0886019 0)
(-0.196983 0.04489 0)
(-0.212217 -0.00772524 0)
(-0.222892 -0.0680137 0)
(-0.226271 -0.132662 0)
(-0.218692 -0.195427 0)
(-0.196297 -0.24595 0)
(-0.156607 -0.269503 0)
(-0.10161 -0.249652 0)
(-0.0431492 -0.176836 0)
(-0.00327177 -0.0629401 0)
(-0.00110592 0.0529343 0)
(-0.0119265 0.124515 0)
(-0.0284318 0.168364 0)
(-0.0473762 0.191532 0)
(-0.066627 0.200031 0)
(-0.0853754 0.19791 0)
(-0.103427 0.187315 0)
(-0.120945 0.168916 0)
(-0.138215 0.142441 0)
(-0.155449 0.107134 0)
(-0.172594 0.0621547 0)
(-0.189149 0.0069878 0)
(-0.203737 -0.0580739 0)
(-0.213827 -0.130842 0)
(-0.215539 -0.206077 0)
(-0.203582 -0.273457 0)
(-0.172567 -0.3157 0)
(-0.120279 -0.309132 0)
(-0.0559914 -0.232031 0)
(-0.00526762 -0.088226 0)
(-0.00127372 0.0591639 0)
(-0.0119277 0.137929 0)
(-0.0268617 0.185089 0)
(-0.0428149 0.20901 0)
(-0.0577774 0.216999 0)
(-0.0712952 0.213995 0)
(-0.0835656 0.202673 0)
(-0.095161 0.183974 0)
(-0.106811 0.157685 0)
(-0.119242 0.122927 0)
(-0.133013 0.0785198 0)
(-0.148324 0.0233169 0)
(-0.164646 -0.0432939 0)
(-0.180267 -0.120716 0)
(-0.19169 -0.20552 0)
(-0.193024 -0.288912 0)
(-0.176329 -0.35296 0)
(-0.134117 -0.367623 0)
(-0.0700811 -0.295232 0)
(-0.00832734 -0.121382 0)
(-0.00184962 0.0658221 0)
(-0.0134579 0.150625 0)
(-0.0269708 0.199364 0)
(-0.0392291 0.222307 0)
(-0.0485026 0.228426 0)
(-0.0549775 0.223632 0)
(-0.0594219 0.211132 0)
(-0.0629014 0.192127 0)
(-0.0666013 0.166503 0)
(-0.0717287 0.133342 0)
(-0.0794186 0.0912617 0)
(-0.0905986 0.0386662 0)
(-0.10571 -0.0259469 0)
(-0.124239 -0.103483 0)
(-0.143909 -0.192901 0)
(-0.159454 -0.288464 0)
(-0.161629 -0.374331 0)
(-0.137665 -0.417157 0)
(-0.0832645 -0.362086 0)
(-0.0127832 -0.163496 0)
(-0.00328655 0.0743327 0)
(-0.0180828 0.163586 0)
(-0.0305599 0.211082 0)
(-0.0382771 0.230371 0)
(-0.0401628 0.23267 0)
(-0.0375369 0.224875 0)
(-0.0319971 0.21059 0)
(-0.0251989 0.191168 0)
(-0.0187704 0.166549 0)
(-0.0143178 0.135813 0)
(-0.0134313 0.0975025 0)
(-0.0176455 0.0497977 0)
(-0.0283079 -0.00935155 0)
(-0.0462306 -0.0820389 0)
(-0.0709744 -0.169596 0)
(-0.0992366 -0.270382 0)
(-0.122589 -0.373685 0)
(-0.124374 -0.448104 0)
(-0.0915503 -0.424659 0)
(-0.0187138 -0.214586 0)
(-0.00636398 0.0873956 0)
(-0.0280124 0.178258 0)
(-0.039282 0.219868 0)
(-0.0405786 0.23159 0)
(-0.0323261 0.227562 0)
(-0.0177623 0.215418 0)
(0.000374123 0.198795 0)
(0.0197625 0.178928 0)
(0.0383886 0.155669 0)
(0.0543751 0.128075 0)
(0.0658487 0.0947011 0)
(0.070875 0.0537251 0)
(0.0674203 0.00295917 0)
(0.0535266 -0.0602715 0)
(0.0276632 -0.138976 0)
(-0.00977188 -0.235631 0)
(-0.0537668 -0.347024 0)
(-0.0866163 -0.450324 0)
(-0.0885203 -0.470851 0)
(-0.0253076 -0.272264 0)
(-0.0125247 0.110609 0)
(-0.0452199 0.196707 0)
(-0.0514523 0.224539 0)
(-0.0408738 0.22312 0)
(-0.0170351 0.209832 0)
(0.0139324 0.192195 0)
(0.0480194 0.173107 0)
(0.0823841 0.153192 0)
(0.114852 0.13197 0)
(0.143515 0.108393 0)
(0.16646 0.0810824 0)
(0.181619 0.0483825 0)
(0.18657 0.00832053 0)
(0.178642 -0.0416949 0)
(0.154759 -0.105195 0)
(0.112462 -0.187488 0)
(0.0512036 -0.293356 0)
(-0.0143153 -0.414488 0)
(-0.0643338 -0.485122 0)
(-0.0295905 -0.330461 0)
(-0.0216115 0.148418 0)
(-0.0652288 0.213122 0)
(-0.0493936 0.215068 0)
(-0.0130316 0.19509 0)
(0.0358881 0.171614 0)
(0.0887354 0.149603 0)
(0.141276 0.129846 0)
(0.191065 0.111755 0)
(0.23647 0.0943079 0)
(0.276071 0.0763375 0)
(0.308327 0.0566069 0)
(0.331397 0.0337856 0)
(0.342843 0.00634693 0)
(0.339857 -0.0276626 0)
(0.318524 -0.0712368 0)
(0.274661 -0.130266 0)
(0.202174 -0.214989 0)
(0.107943 -0.334974 0)
(-0.00320477 -0.451462 0)
(-0.0232652 -0.378735 0)
(-0.0274723 0.229336 0)
(-0.0364933 0.22312 0)
(0.0465603 0.176951 0)
(0.127046 0.138742 0)
(0.205601 0.109501 0)
(0.277488 0.0878764 0)
(0.34179 0.0715785 0)
(0.398484 0.0585821 0)
(0.447621 0.0473868 0)
(0.488959 0.0368461 0)
(0.521798 0.0260104 0)
(0.544926 0.0140229 0)
(0.5564 5.19578e-06 0)
(0.55389 -0.0170371 0)
(0.533366 -0.0390882 0)
(0.490589 -0.0704558 0)
(0.415322 -0.120934 0)
(0.304905 -0.213375 0)
(0.125881 -0.348318 0)
(0.023668 -0.37879 0)
(0.21444 0.135797 0)
(0.285137 0.0984496 0)
(0.444655 0.0569152 0)
(0.547913 0.036584 0)
(0.621662 0.0241692 0)
(0.678249 0.0163207 0)
(0.722824 0.011336 0)
(0.758414 0.00800683 0)
(0.786854 0.00557321 0)
(0.809038 0.0035711 0)
(0.825149 0.00169393 0)
(0.834864 -0.000271527 0)
(0.837314 -0.0025068 0)
(0.831191 -0.00505123 0)
(0.813548 -0.00850248 0)
(0.781941 -0.0135056 0)
(0.72408 -0.0231768 0)
(0.635276 -0.0406015 0)
(0.43131 -0.0912947 0)
(0.270899 -0.153523 0)
)
;

boundaryField
{
    movingWall
    {
        type            fixedValue;
        value           uniform (1 0 0);
    }
    fixedWalls
    {
        type            fixedValue;
        value           uniform (0 0 0);
    }
    frontAndBack
    {
        type            empty;
    }
}


// ************************************************************************* //
