/*--------------------------------*- C++ -*----------------------------------*\
  =========                 |
  \\      /  F ield         | OpenFOAM: The Open Source CFD Toolbox
   \\    /   O peration     | Website:  https://openfoam.org
    \\  /    A nd           | Version:  13
     \\/     M anipulation  |
\*---------------------------------------------------------------------------*/
FoamFile
{
    format      ascii;
    class       volScalarField;
    location    "16";
    object      p;
}
// * * * * * * * * * * * * * * * * * * * * * * * * * * * * * * * * * * * * * //

dimensions      [0 2 -2 0 0 0 0];

internalField   nonuniform List<scalar> 
400
(
7.77816e-08
-0.000571547
-0.00121368
-0.00171505
-0.00195397
-0.0018782
-0.00146299
-0.000697382
0.000409676
0.00181414
0.00342237
0.0050821
0.0065977
0.00775777
0.00838711
0.0084042
0.00786556
0.00698085
0.00606109
0.00550792
0.0005691
-2.02415e-05
-0.000568353
-0.000954397
-0.00112806
-0.00105672
-0.000719513
-0.000101813
0.00079683
0.00194776
0.00327803
0.00466814
0.00594855
0.00693781
0.00748286
0.00751152
0.00707037
0.00633141
0.00555682
0.0049867
0.00124352
0.000492017
-8.64201e-05
-0.000439795
-0.000603201
-0.000571851
-0.00033133
0.000139899
0.000858068
0.00181593
0.00296416
0.0042011
0.00537369
0.00630323
0.00682921
0.00686385
0.00643301
0.00568178
0.00482358
0.00405246
0.00173716
0.000761834
7.32089e-05
-0.000321003
-0.000534564
-0.000588332
-0.000471868
-0.000151927
0.000409817
0.00123295
0.00229307
0.00350434
0.00471305
0.00572104
0.00633102
0.00641057
0.00594713
0.00506555
0.00396463
0.0028616
0.00179136
0.000593526
-0.000228271
-0.000703765
-0.00101507
-0.00120178
-0.00125131
-0.00111241
-0.000717743
-1.35366e-05
0.0010068
0.00227875
0.00364485
0.00487559
0.00571285
0.00594685
0.00549585
0.00445226
0.00301816
0.00148163
0.00119102
-0.000204566
-0.00116296
-0.00175041
-0.00220658
-0.00258272
-0.00285789
-0.00295645
-0.00277426
-0.00221319
-0.00122342
0.000171364
0.00181298
0.00343887
0.00470827
0.00529233
0.00498985
0.00382472
0.00199963
-8.17573e-05
-0.000243377
-0.00179965
-0.00288976
-0.00361735
-0.00426962
-0.00490457
-0.00548857
-0.00591664
-0.00603984
-0.00570094
-0.00477781
-0.00325618
-0.00124256
0.000972498
0.00294994
0.00419185
0.00430057
0.00315736
0.000925932
-0.00183095
-0.00265015
-0.0043225
-0.00553523
-0.00643043
-0.0073343
-0.00830995
-0.00931055
-0.0101999
-0.0107775
-0.0108131
-0.0100943
-0.00849964
-0.00606937
-0.00307751
-5.52347e-05
0.00228294
0.00323835
0.00242042
-0.000151106
-0.00372456
-0.00611455
-0.00785316
-0.00917399
-0.0102578
-0.0114643
-0.0128646
-0.0144031
-0.0159149
-0.0171457
-0.0177793
-0.0174845
-0.0159917
-0.013204
-0.00931223
-0.00489573
-0.000906228
0.00153915
0.00158353
-0.00110791
-0.00561553
-0.0106586
-0.0124095
-0.0138112
-0.0150822
-0.016617
-0.0185038
-0.0206875
-0.0229832
-0.0250863
-0.02659
-0.0270223
-0.025915
-0.022974
-0.0181982
-0.012118
-0.0058791
-0.00110532
0.000635956
-0.00169947
-0.00716167
-0.016241
-0.0179453
-0.0193738
-0.0207806
-0.0226102
-0.0249848
-0.0278644
-0.0310562
-0.0342148
-0.0368458
-0.038324
-0.0379312
-0.0352145
-0.0297693
-0.0219477
-0.0129567
-0.00491761
-0.000339173
-0.00148225
-0.00768629
-0.0227771
-0.0243644
-0.0257158
-0.0271181
-0.0291075
-0.0318672
-0.0353904
-0.0394889
-0.0437871
-0.0477115
-0.0505046
-0.051306
-0.0490916
-0.043327
-0.0339286
-0.021925
-0.00976106
-0.000986663
0.000314098
-0.00596672
-0.0301914
-0.0315562
-0.032639
-0.0337587
-0.0356297
-0.0385343
-0.042515
-0.0473928
-0.0527651
-0.0579888
-0.0621754
-0.0642368
-0.0629526
-0.0572684
-0.046636
-0.0316551
-0.0147582
-0.000380581
0.00499743
5.23237e-05
-0.0385253
-0.0394567
-0.039929
-0.0402931
-0.041597
-0.0442651
-0.0483932
-0.0537991
-0.0600393
-0.0663951
-0.0718589
-0.0751542
-0.0748089
-0.0693672
-0.0577601
-0.0399617
-0.0179883
0.0033098
0.0147248
0.0135785
-0.0481388
-0.0481238
-0.0473722
-0.0462527
-0.0463777
-0.0483312
-0.0522339
-0.0578579
-0.0646782
-0.0718713
-0.0782975
-0.082503
-0.0827816
-0.0773322
-0.0646122
-0.0439106
-0.0165214
0.0130382
0.032948
0.0392943
-0.0602006
-0.0579268
-0.0548396
-0.0511875
-0.0493995
-0.0501455
-0.0534799
-0.0590454
-0.0661657
-0.0738617
-0.0808241
-0.0854041
-0.0856669
-0.0794906
-0.0649229
-0.0406
-0.00697201
0.0328224
0.0647988
0.0836798
-0.0774518
-0.0694477
-0.0620666
-0.0545317
-0.0501204
-0.049301
-0.0518723
-0.0572204
-0.0644389
-0.0723347
-0.0793915
-0.0837363
-0.0831865
-0.0752632
-0.0576133
-0.0282124
0.0133457
0.066654
0.115746
0.1548
-0.108903
-0.0850222
-0.0697614
-0.0563835
-0.048532
-0.0458661
-0.0476002
-0.0526815
-0.0598763
-0.0677326
-0.0745093
-0.0781032
-0.0760775
-0.0655281
-0.0436411
-0.00745308
0.0447289
0.114917
0.188063
0.263266
-0.168678
-0.100734
-0.0730882
-0.0522873
-0.0413082
-0.0376914
-0.0394243
-0.0448378
-0.0523801
-0.0604071
-0.0670347
-0.070014
-0.0666635
-0.0537754
-0.0278887
0.0154008
0.0800557
0.172741
0.285836
0.445968
-0.402739
-0.139021
-0.0734562
-0.0447319
-0.0305729
-0.0266127
-0.0290716
-0.0353496
-0.0436218
-0.0521703
-0.0590865
-0.0621122
-0.058592
-0.0451996
-0.0174477
0.031072
0.108482
0.23664
0.42747
0.793663
)
;

boundaryField
{
    movingWall
    {
        type            zeroGradient;
    }
    fixedWalls
    {
        type            zeroGradient;
    }
    frontAndBack
    {
        type            empty;
    }
}


// ************************************************************************* //
