/*--------------------------------*- C++ -*----------------------------------*\
  =========                 |
  \\      /  F ield         | OpenFOAM: The Open Source CFD Toolbox
   \\    /   O peration     | Website:  https://openfoam.org
    \\  /    A nd           | Version:  13
     \\/     M anipulation  |
\*---------------------------------------------------------------------------*/
FoamFile
{
    format      ascii;
    class       surfaceScalarField;
    location    "16";
    object      phi;
}
// * * * * * * * * * * * * * * * * * * * * * * * * * * * * * * * * * * * * * //

dimensions      [0 3 -1 0 0 0 0];

internalField   nonuniform List<scalar> 
760
(
4.36612e-06
-4.36775e-06
-3.89714e-05
4.33375e-05
-0.000131054
9.20825e-05
-0.000256334
0.000125281
-0.000399058
0.000142723
-0.000545787
0.000146729
-0.0006846
0.000138813
-0.000803751
0.000119151
-0.000891102
8.73504e-05
-0.000934821
4.37196e-05
-0.000925218
-9.60353e-06
-0.000857674
-6.75436e-05
-0.000735236
-0.000122439
-0.000570623
-0.000164612
-0.000386019
-0.000184605
-0.000210025
-0.000175994
-7.17178e-05
-0.000138307
7.43708e-06
-7.91549e-05
2.35448e-05
-1.61078e-05
2.35447e-05
-4.70318e-05
4.2664e-05
-0.000209759
0.000206064
-0.000473201
0.000355525
-0.000804985
0.000457065
-0.00117125
0.00050899
-0.00154059
0.000516062
-0.00188354
0.000481768
-0.00217129
0.000406904
-0.00237558
0.000291635
-0.00247073
0.00013887
-0.0024378
-4.25368e-05
-0.0022692
-0.000236141
-0.00197434
-0.000417298
-0.0015821
-0.00055685
-0.00114019
-0.00062652
-0.000709068
-0.000607111
-0.000350299
-0.000497076
-0.000110644
-0.000318809
-5.71689e-06
-0.000121035
1.78278e-05
-0.000111297
0.000153961
-0.000404746
0.000499513
-0.000833559
0.000784338
-0.00134845
0.000971957
-0.0019026
0.00106314
-0.00245262
0.00106608
-0.00295729
0.000986432
-0.00337639
0.000826003
-0.0036713
0.000586547
-0.00380788
0.000275452
-0.00376139
-8.90233e-05
-0.00352239
-0.000475148
-0.00310266
-0.000837024
-0.00253907
-0.00112044
-0.00189345
-0.00127215
-0.0012463
-0.00125425
-0.000683038
-0.00106034
-0.000273763
-0.000728084
-5.2115e-05
-0.000342684
-3.42873e-05
-0.000172905
0.000326866
-0.000592797
0.000919406
-0.00117768
0.00136922
-0.00185935
0.00165363
-0.00257966
0.00178345
-0.0032869
0.00177332
-0.00393255
0.00163208
-0.00446943
0.00136289
-0.00485225
0.000969365
-0.00504053
0.00046373
-0.00500361
-0.000125943
-0.00472682
-0.000751936
-0.00421849
-0.00134536
-0.00351568
-0.00182325
-0.00268694
-0.00210088
-0.00182854
-0.00211265
-0.00105081
-0.00183807
-0.000454277
-0.00132462
-0.000101912
-0.000695049
-0.000136199
-0.000227937
0.000554803
-0.00076251
0.00145398
-0.00148893
0.00209564
-0.00232071
0.00248541
-0.00318998
0.00265272
-0.0040396
0.00262294
-0.00481718
0.00240967
-0.00547196
0.00201766
-0.00595431
0.00145172
-0.00621797
0.000727389
-0.00622446
-0.000119451
-0.00594905
-0.00102735
-0.00538943
-0.00190497
-0.00457456
-0.00263812
-0.00357259
-0.00310286
-0.00249273
-0.00319251
-0.00147457
-0.00285623
-0.00066046
-0.00213873
-0.00015649
-0.00119902
-0.000292689
-0.000274361
0.000829164
-0.000906854
0.00208647
-0.00175509
0.00294388
-0.00271704
0.00344736
-0.00371741
0.00365309
-0.00469623
0.00360176
-0.00560033
0.00331376
-0.00637812
0.00279546
-0.00697766
0.00205126
-0.00734715
0.00109687
-0.00743847
-2.81274e-05
-0.00721178
-0.00125404
-0.00664691
-0.00246984
-0.00575517
-0.00352987
-0.00459483
-0.00426319
-0.00328236
-0.00450498
-0.00198935
-0.00414924
-0.000913417
-0.00321467
-0.00022309
-0.00188935
-0.000515779
-0.000310266
0.00113943
-0.00101948
0.00279568
-0.00196431
0.00388871
-0.00303102
0.00451407
-0.0041396
0.00476167
-0.00522991
0.00469207
-0.00625078
0.00433464
-0.00715274
0.00369742
-0.00788385
0.00278237
-0.00838822
0.00160124
-0.0086066
0.000190258
-0.00848283
-0.00137782
-0.00797147
-0.0029812
-0.00705607
-0.00444527
-0.00577185
-0.00554741
-0.00423024
-0.0060466
-0.00263083
-0.00574865
-0.0012386
-0.0046069
-0.00031117
-0.00281678
-0.000826949
-0.000333744
0.00147317
-0.00109424
0.00355618
-0.00210457
0.00489904
-0.00324334
0.00565283
-0.00442853
0.00594686
-0.00560231
0.00586585
-0.0067183
0.00545063
-0.00773225
0.00471136
-0.00859558
0.0036457
-0.00925142
0.00225708
-0.00963292
0.000571757
-0.00966616
-0.00134458
-0.00927836
-0.003369
-0.00841595
-0.00530768
-0.00707479
-0.00688856
-0.0053402
-0.00778119
-0.00342341
-0.00766544
-0.0016606
-0.0063697
-0.000431282
-0.0040461
-0.00125823
-0.000343545
0.00181672
-0.00112664
0.00433928
-0.00216583
0.00593824
-0.0033357
0.0068227
-0.00455455
0.00716571
-0.00576903
0.00708034
-0.00694023
0.00662182
-0.00803257
0.0058037
-0.00900538
0.00461851
-0.0098063
0.003058
-0.0103667
0.00113219
-0.0106007
-0.00111063
-0.0104099
-0.00355975
-0.00969886
-0.00601875
-0.00840775
-0.00817967
-0.0065671
-0.00962184
-0.00436637
-0.00986616
-0.00219803
-0.00853804
-0.000594778
-0.00564935
-0.00185301
-0.000340215
0.00215693
-0.00111649
0.00511555
-0.00214418
0.00696594
-0.0032964
0.00797491
-0.0044937
0.00836301
-0.00568917
0.00827581
-0.00685387
0.00778652
-0.00796454
0.00691437
-0.0089936
0.00564758
-0.00990058
0.00396497
-0.0106244
0.00185606
-0.0110771
-0.000657944
-0.011145
-0.00349185
-0.010693
-0.00647075
-0.00959553
-0.00927716
-0.00779759
-0.0114198
-0.00541668
-0.0122471
-0.00285587
-0.0110989
-0.000813417
-0.0076918
-0.00266643
-0.000327655
0.00248459
-0.00107149
0.00585939
-0.00204722
0.00794166
-0.00312758
0.00905528
-0.00423733
0.00947276
-0.0053382
0.00937668
-0.00641376
0.00886207
-0.0074565
0.00795711
-0.00845707
0.00664815
-0.00939447
0.00490238
-0.0102267
0.00268832
-0.0108747
-9.99593e-06
-0.0112313
-0.0031352
-0.0111322
-0.00656985
-0.0103891
-0.0100203
-0.00883936
-0.0129695
-0.00647035
-0.0146161
-0.00361325
-0.013956
-0.00109783
-0.0102072
-0.00376426
-0.000315178
0.00279977
-0.00101147
0.00655567
-0.00189976
0.00882995
-0.00285234
0.0100079
-0.00380117
0.0104216
-0.00472013
0.0102956
-0.00560833
0.00975028
-0.00647693
0.00882571
-0.00733853
0.00750974
-0.00819751
0.00576136
-0.00903899
0.0035298
-0.00982113
0.000772135
-0.010441
-0.00251529
-0.0107435
-0.00626736
-0.0104968
-0.0102671
-0.0094295
-0.0140368
-0.00734997
-0.0166956
-0.004407
-0.0168989
-0.00145347
-0.0131608
-0.00521773
-0.000320503
0.00312027
-0.00097302
0.00720819
-0.00174873
0.00960566
-0.00251921
0.0107783
-0.00323011
0.0111325
-0.00387379
0.0109393
-0.00446935
0.0103458
-0.00504924
0.0094056
-0.00564989
0.00811039
-0.00630373
0.0064152
-0.00702992
0.00425599
-0.00782186
0.00156408
-0.00862372
-0.00171343
-0.00930744
-0.00558364
-0.00963857
-0.00993596
-0.00926758
-0.0144077
-0.00780791
-0.0181553
-0.00511457
-0.0195923
-0.00187229
-0.016403
-0.00709002
-0.000374577
0.00349485
-0.00101472
0.00784833
-0.00166504
0.010256
-0.0022
0.0113133
-0.00259231
0.0115248
-0.00286411
0.0112111
-0.003061
0.0105427
-0.00323902
0.00958362
-0.00345796
0.00832933
-0.00377663
0.00673387
-0.00424695
0.0047263
-0.00490412
0.00222126
-0.00574743
-0.000870125
-0.00670923
-0.00462185
-0.00760332
-0.00904186
-0.00806508
-0.013946
-0.00754882
-0.0186716
-0.00554317
-0.0215979
-0.00231883
-0.0196274
-0.00940885
-0.000530058
0.00402491
-0.00122054
0.00853882
-0.00173554
0.010771
-0.00196982
0.0115476
-0.00194922
0.0115042
-0.00174355
0.0110054
-0.00143372
0.0102329
-0.00110144
0.00925135
-0.000827512
0.00805541
-0.000692004
0.00659836
-0.000773274
0.00480757
-0.00114394
0.00259192
-0.00185958
-0.000154483
-0.00293133
-0.0035501
-0.00426999
-0.0077032
-0.00558187
-0.0126341
-0.00625811
-0.0179953
-0.00542729
-0.0224287
-0.00270949
-0.0223452
-0.0121183
-0.000869361
0.00489427
-0.00168608
0.00935554
-0.00201701
0.0111019
-0.00183247
0.011363
-0.00125903
0.0109308
-0.000439694
0.0101861
0.000499863
0.00929335
0.00145208
0.00829913
0.00231971
0.00718777
0.00300886
0.00590921
0.00342383
0.0043926
0.00346502
0.00255073
0.00303077
0.000279765
0.00203339
-0.00255272
0.000438895
-0.0061087
-0.00161424
-0.010581
-0.00360404
-0.0160055
-0.00441709
-0.0216157
-0.00288137
-0.0238809
-0.0149997
-0.00149524
0.00638951
-0.00241286
0.0102732
-0.00233407
0.0110231
-0.00145571
0.0104847
-8.22159e-05
0.00955726
0.00154607
0.00855782
0.00325871
0.00758071
0.00493121
0.00662664
0.00646178
0.0056572
0.00775485
0.00461613
0.00871025
0.00343721
0.00921581
0.00204517
0.00914128
0.000354301
0.00834446
-0.0017559
0.00667911
-0.00444336
0.00408514
-0.00798699
0.00083809
-0.0127585
-0.00200682
-0.0187708
-0.00250352
-0.0233842
-0.0175032
-0.0023412
0.00873071
-0.00282077
0.0107527
-0.00158734
0.00978969
0.000570642
0.0083267
0.0031168
0.0070111
0.00575234
0.00592228
0.00831109
0.00502196
0.010692
0.00424568
0.0128192
0.00353008
0.0146184
0.00281688
0.0160045
0.00205116
0.0168714
0.00117819
0.0170831
0.000142621
0.0164771
-0.00114983
0.0148388
-0.00280507
0.011933
-0.00508119
0.00764794
-0.00847344
0.00261078
-0.0137336
-0.000909064
-0.0198644
-0.0184123
-0.00200249
0.0107332
0.000357683
0.00839256
0.00431851
0.00582886
0.00833255
0.00431266
0.0120895
0.00325418
0.0154908
0.00252097
0.018514
0.00199871
0.0211599
0.00159978
0.0234233
0.0012667
0.0252805
0.000959701
0.0266832
0.000648453
0.0275526
0.000308772
0.0277792
-8.3992e-05
0.0272109
-0.000581491
0.0256259
-0.00122002
0.0226946
-0.00214992
0.0179503
-0.00372914
0.0109495
-0.00673278
0.00302438
-0.0119393
-0.0153879
0.0107332
0.0191258
0.0249546
0.0292673
0.0325215
0.0350424
0.0370411
0.0386409
0.0399076
0.0408673
0.0415158
0.0418245
0.0417405
0.041159
0.039939
0.0377891
0.03406
0.0273272
0.0153879
)
;

boundaryField
{
    movingWall
    {
        type            calculated;
        value           uniform 0;
    }
    fixedWalls
    {
        type            calculated;
        value           uniform 0;
    }
    frontAndBack
    {
        type            empty;
    }
}


// ************************************************************************* //
