/*--------------------------------*- C++ -*----------------------------------*\
  =========                 |
  \\      /  F ield         | OpenFOAM: The Open Source CFD Toolbox
   \\    /   O peration     | Website:  https://openfoam.org
    \\  /    A nd           | Version:  13
     \\/     M anipulation  |
\*---------------------------------------------------------------------------*/
FoamFile
{
    format      ascii;
    class       surfaceScalarField;
    location    "16";
    object      phi_0;
}
// * * * * * * * * * * * * * * * * * * * * * * * * * * * * * * * * * * * * * //

dimensions      [0 3 -1 0 0 0 0];

internalField   nonuniform List<scalar> 
760
(
4.36662e-06
-4.36688e-06
-3.89707e-05
4.33376e-05
-0.000131053
9.20822e-05
-0.000256333
0.00012528
-0.000399056
0.000142723
-0.000545784
0.000146728
-0.000684596
0.000138813
-0.000803747
0.000119151
-0.000891097
8.735e-05
-0.000934816
4.37195e-05
-0.000925213
-9.60328e-06
-0.00085767
-6.7543e-05
-0.000735232
-0.000122438
-0.000570621
-0.000164611
-0.000386018
-0.000184604
-0.000210025
-0.000175993
-7.17183e-05
-0.000138307
7.43653e-06
-7.91548e-05
2.35445e-05
-1.6108e-05
2.35445e-05
-4.70315e-05
4.26646e-05
-0.000209757
0.000206063
-0.000473198
0.000355523
-0.000804981
0.000457063
-0.00117125
0.000508987
-0.00154058
0.000516059
-0.00188353
0.000481765
-0.00217128
0.000406901
-0.00237556
0.000291634
-0.00247071
0.00013887
-0.00243778
-4.25357e-05
-0.00226919
-0.000236139
-0.00197433
-0.000417295
-0.00158209
-0.000556847
-0.00114018
-0.000626516
-0.000709066
-0.000607108
-0.000350298
-0.000497074
-0.000110645
-0.000318809
-5.71713e-06
-0.000121035
1.78274e-05
-0.000111296
0.000153961
-0.000404743
0.000499511
-0.000833553
0.000784333
-0.00134844
0.000971951
-0.00190259
0.00106314
-0.00245261
0.00106608
-0.00295727
0.000986426
-0.00337637
0.000825999
-0.00367128
0.000586545
-0.00380786
0.000275452
-0.00376137
-8.9021e-05
-0.00352237
-0.000475143
-0.00310265
-0.000837018
-0.00253906
-0.00112043
-0.00189344
-0.00127214
-0.0012463
-0.00125425
-0.000683036
-0.00106034
-0.000273763
-0.000728082
-5.21151e-05
-0.000342683
-3.42876e-05
-0.000172904
0.000326865
-0.000592793
0.0009194
-0.00117768
0.00136922
-0.00185934
0.00165362
-0.00257964
0.00178344
-0.00328688
0.00177331
-0.00393252
0.00163207
-0.0044694
0.00136288
-0.00485222
0.000969361
-0.0050405
0.00046373
-0.00500358
-0.000125939
-0.00472679
-0.000751929
-0.00421847
-0.00134535
-0.00351566
-0.00182324
-0.00268693
-0.00210087
-0.00182853
-0.00211264
-0.00105081
-0.00183806
-0.000454275
-0.00132462
-0.000101912
-0.000695047
-0.000136199
-0.000227935
0.0005548
-0.000762504
0.00145397
-0.00148892
0.00209563
-0.00232069
0.00248539
-0.00318996
0.00265271
-0.00403957
0.00262292
-0.00481715
0.00240966
-0.00547193
0.00201765
-0.00595428
0.00145171
-0.00621794
0.00072739
-0.00622443
-0.000119446
-0.00594902
-0.00102734
-0.00538941
-0.00190496
-0.00457454
-0.00263811
-0.00357257
-0.00310284
-0.00249272
-0.0031925
-0.00147457
-0.00285622
-0.000660458
-0.00213873
-0.000156489
-0.00119902
-0.000292689
-0.000274359
0.000829158
-0.000906848
0.00208646
-0.00175508
0.00294386
-0.00271702
0.00344733
-0.00371739
0.00365307
-0.00469621
0.00360174
-0.00560029
0.00331375
-0.00637809
0.00279545
-0.00697763
0.00205125
-0.00734711
0.00109687
-0.00743844
-2.81206e-05
-0.00721175
-0.00125403
-0.00664688
-0.00246982
-0.00575514
-0.00352984
-0.00459481
-0.00426317
-0.00328235
-0.00450496
-0.00198934
-0.00414922
-0.000913413
-0.00321465
-0.000223089
-0.00188934
-0.000515778
-0.000310263
0.00113942
-0.00101947
0.00279567
-0.0019643
0.00388869
-0.003031
0.00451404
-0.00413958
0.00476164
-0.00522988
0.00469204
-0.00625075
0.00433461
-0.00715271
0.0036974
-0.00788381
0.00278236
-0.00838818
0.00160124
-0.00860657
0.000190266
-0.00848279
-0.0013778
-0.00797144
-0.00298118
-0.00705604
-0.00444525
-0.00577183
-0.00554738
-0.00423022
-0.00604657
-0.00263082
-0.00574862
-0.0012386
-0.00460688
-0.000311169
-0.00281677
-0.000826947
-0.000333742
0.00147316
-0.00109424
0.00355616
-0.00210456
0.00489901
-0.00324332
0.0056528
-0.00442851
0.00594683
-0.00560229
0.00586582
-0.00671828
0.0054506
-0.00773222
0.00471134
-0.00859555
0.00364569
-0.00925139
0.00225708
-0.00963289
0.000571766
-0.00966613
-0.00134456
-0.00927833
-0.00336898
-0.00841592
-0.00530765
-0.00707477
-0.00688853
-0.00534019
-0.00778116
-0.0034234
-0.00766541
-0.0016606
-0.00636968
-0.000431281
-0.00404608
-0.00125823
-0.000343544
0.00181671
-0.00112663
0.00433925
-0.00216583
0.0059382
-0.00333568
0.00682266
-0.00455453
0.00716568
-0.00576901
0.0070803
-0.0069402
0.00662179
-0.00803255
0.00580369
-0.00900535
0.0046185
-0.00980628
0.003058
-0.0103667
0.0011322
-0.0106007
-0.00111062
-0.0104099
-0.00355972
-0.00969884
-0.00601872
-0.00840773
-0.00817963
-0.00656708
-0.00962181
-0.00436636
-0.00986613
-0.00219803
-0.00853802
-0.000594777
-0.00564933
-0.001853
-0.000340214
0.00215692
-0.00111648
0.00511552
-0.00214418
0.0069659
-0.00329639
0.00797487
-0.00449369
0.00836297
-0.00568916
0.00827578
-0.00685385
0.00778649
-0.00796452
0.00691436
-0.00899359
0.00564757
-0.00990056
0.00396498
-0.0106244
0.00185607
-0.0110771
-0.000657927
-0.011145
-0.00349183
-0.010693
-0.00647072
-0.00959552
-0.00927713
-0.00779758
-0.0114198
-0.00541667
-0.012247
-0.00285586
-0.0110988
-0.000813415
-0.00769178
-0.00266642
-0.000327655
0.00248458
-0.00107149
0.00585936
-0.00204722
0.00794162
-0.00312758
0.00905524
-0.00423733
0.00947272
-0.0053382
0.00937664
-0.00641376
0.00886205
-0.0074565
0.0079571
-0.00845706
0.00664814
-0.00939447
0.00490238
-0.0102267
0.00268833
-0.0108747
-9.98003e-06
-0.0112313
-0.00313518
-0.0111322
-0.00656982
-0.010389
-0.0100203
-0.00883936
-0.0129694
-0.00647034
-0.0146161
-0.00361324
-0.0139559
-0.00109783
-0.0102072
-0.00376425
-0.000315178
0.00279976
-0.00101147
0.00655565
-0.00189976
0.00882992
-0.00285234
0.0100078
-0.00380118
0.0104216
-0.00472014
0.0102956
-0.00560834
0.00975025
-0.00647694
0.0088257
-0.00733854
0.00750973
-0.00819752
0.00576136
-0.00903901
0.00352981
-0.00982114
0.000772152
-0.010441
-0.00251527
-0.0107435
-0.00626734
-0.0104968
-0.0102671
-0.00942951
-0.0140367
-0.00734997
-0.0166956
-0.004407
-0.0168989
-0.00145347
-0.0131607
-0.00521772
-0.000320505
0.00312026
-0.000973025
0.00720817
-0.00174874
0.00960563
-0.00251922
0.0107783
-0.00323012
0.0111325
-0.0038738
0.0109393
-0.00446937
0.0103458
-0.00504927
0.00940559
-0.00564992
0.00811038
-0.00630376
0.00641521
-0.00702994
0.004256
-0.00782189
0.0015641
-0.00862374
-0.00171341
-0.00930746
-0.00558362
-0.00963859
-0.00993593
-0.00926759
-0.0144077
-0.00780791
-0.0181553
-0.00511457
-0.0195922
-0.00187229
-0.016403
-0.00709001
-0.00037458
0.00349484
-0.00101472
0.00784831
-0.00166505
0.010256
-0.00220002
0.0113133
-0.00259233
0.0115248
-0.00286413
0.0112111
-0.00306102
0.0105427
-0.00323905
0.00958361
-0.003458
0.00832933
-0.00377666
0.00673388
-0.00424698
0.00472631
-0.00490416
0.00222127
-0.00574746
-0.000870107
-0.00670925
-0.00462183
-0.00760334
-0.00904184
-0.00806509
-0.013946
-0.00754883
-0.0186715
-0.00554318
-0.0215979
-0.00231883
-0.0196274
-0.00940884
-0.000530061
0.0040249
-0.00122055
0.0085388
-0.00173555
0.010771
-0.00196984
0.0115476
-0.00194924
0.0115042
-0.00174358
0.0110054
-0.00143375
0.0102329
-0.00110148
0.00925134
-0.00082755
0.0080554
-0.000692042
0.00659837
-0.000773311
0.00480758
-0.00114397
0.00259194
-0.00185961
-0.000154467
-0.00293136
-0.00355008
-0.00427001
-0.00770319
-0.00558189
-0.0126341
-0.00625813
-0.0179953
-0.0054273
-0.0224287
-0.00270949
-0.0223452
-0.0121183
-0.000869364
0.00489427
-0.00168609
0.00935553
-0.00201703
0.0111019
-0.0018325
0.011363
-0.00125906
0.0109307
-0.000439728
0.0101861
0.000499824
0.00929334
0.00145204
0.00829912
0.00231967
0.00718777
0.00300882
0.00590922
0.00342379
0.00439261
0.00346499
0.00255074
0.00303074
0.000279778
0.00203337
-0.00255271
0.000438871
-0.00610869
-0.00161426
-0.010581
-0.00360406
-0.0160055
-0.0044171
-0.0216157
-0.00288137
-0.0238809
-0.0149997
-0.00149524
0.00638951
-0.00241287
0.0102732
-0.00233408
0.0110231
-0.00145573
0.0104847
-8.22437e-05
0.00955724
0.00154603
0.00855781
0.00325867
0.0075807
0.00493117
0.00662663
0.00646174
0.0056572
0.00775482
0.00461614
0.00871021
0.00343721
0.00921578
0.00204518
0.00914125
0.000354311
0.00834443
-0.00175589
0.00667909
-0.00444335
0.00408512
-0.00798699
0.000838078
-0.0127585
-0.00200683
-0.0187708
-0.00250352
-0.0233842
-0.0175032
-0.0023412
0.00873071
-0.00282077
0.0107527
-0.00158735
0.00978968
0.000570627
0.0083267
0.00311678
0.0070111
0.00575231
0.00592228
0.00831106
0.00502195
0.010692
0.00424568
0.0128191
0.00353008
0.0146184
0.00281688
0.0160044
0.00205116
0.0168714
0.00117819
0.0170831
0.000142626
0.016477
-0.00114982
0.0148388
-0.00280507
0.011933
-0.00508119
0.00764793
-0.00847344
0.00261078
-0.0137336
-0.000909066
-0.0198644
-0.0184123
-0.00200249
0.0107332
0.000357683
0.00839256
0.00431851
0.00582886
0.00833255
0.00431266
0.0120895
0.00325418
0.0154908
0.00252096
0.018514
0.0019987
0.0211599
0.00159978
0.0234233
0.0012667
0.0252805
0.000959701
0.0266832
0.000648454
0.0275526
0.000308774
0.0277792
-8.39898e-05
0.0272109
-0.000581489
0.0256259
-0.00122002
0.0226946
-0.00214992
0.0179503
-0.00372914
0.0109495
-0.00673278
0.00302438
-0.0119393
-0.0153879
0.0107332
0.0191258
0.0249546
0.0292673
0.0325215
0.0350424
0.0370411
0.0386409
0.0399076
0.0408673
0.0415158
0.0418245
0.0417405
0.041159
0.039939
0.0377891
0.03406
0.0273272
0.0153879
)
;

boundaryField
{
    movingWall
    {
        type            calculated;
        value           uniform 0;
    }
    fixedWalls
    {
        type            calculated;
        value           uniform 0;
    }
    frontAndBack
    {
        type            empty;
    }
}


// ************************************************************************* //
