/*--------------------------------*- C++ -*----------------------------------*\
  =========                 |
  \\      /  F ield         | OpenFOAM: The Open Source CFD Toolbox
   \\    /   O peration     | Website:  https://openfoam.org
    \\  /    A nd           | Version:  13
     \\/     M anipulation  |
\*---------------------------------------------------------------------------*/
FoamFile
{
    format      ascii;
    class       volVectorField;
    location    "16";
    object      U;
}
// * * * * * * * * * * * * * * * * * * * * * * * * * * * * * * * * * * * * * //

dimensions      [0 1 -1 0 0 0 0];

internalField   nonuniform List<vector> 
400
(
(0.000213201 -0.000213569 0)
(-9.41331e-05 -1.47262e-05 0)
(-0.00151325 0.00020226 0)
(-0.0037595 0.000340299 0)
(-0.00650723 0.000412839 0)
(-0.00946143 0.000440993 0)
(-0.0123729 0.000435283 0)
(-0.0150088 0.000395221 0)
(-0.0171299 0.000314321 0)
(-0.0184901 0.000187036 0)
(-0.0188637 1.57071e-05 0)
(-0.018095 -0.000186699 0)
(-0.016158 -0.000388295 0)
(-0.0132067 -0.000547272 0)
(-0.00959737 -0.000619462 0)
(-0.00585786 -0.000572647 0)
(-0.00259578 -0.000400628 0)
(-0.000345778 -0.000134542 0)
(0.000584602 0.000143339 0)
(0.000319796 0.000306635 0)
(2.22859e-06 9.16192e-05 0)
(-0.00201576 0.00187168 0)
(-0.00640909 0.00366328 0)
(-0.0125335 0.00490082 0)
(-0.0196754 0.00555419 0)
(-0.0271808 0.00569353 0)
(-0.0344469 0.0053691 0)
(-0.0408948 0.00458847 0)
(-0.0459486 0.0033429 0)
(-0.0490534 0.00165201 0)
(-0.0497411 -0.000392527 0)
(-0.0477216 -0.00260086 0)
(-0.0429938 -0.00468035 0)
(-0.0359354 -0.00627452 0)
(-0.0273276 -0.00703675 0)
(-0.0182933 -0.00673406 0)
(-0.010119 -0.00535333 0)
(-0.00396734 -0.00317876 0)
(-0.000523913 -0.000841782 0)
(0.000244334 0.00061331 0)
(-0.000277508 0.00167919 0)
(-0.00438429 0.00642819 0)
(-0.0118206 0.0106032 0)
(-0.0215116 0.0134248 0)
(-0.0324278 0.01485 0)
(-0.0436805 0.0149963 0)
(-0.0544307 0.0139514 0)
(-0.0638656 0.0117391 0)
(-0.0711878 0.0083748 0)
(-0.0756498 0.00395461 0)
(-0.0766359 -0.00126047 0)
(-0.0737755 -0.00679465 0)
(-0.0670683 -0.0119657 0)
(-0.0569917 -0.0159612 0)
(-0.0445457 -0.0179966 0)
(-0.0311996 -0.0175357 0)
(-0.0186945 -0.0145279 0)
(-0.00868834 -0.00958334 0)
(-0.00231732 -0.00402885 0)
(8.92429e-05 6.58277e-05 0)
(-0.000531455 0.00454319 0)
(-0.00667654 0.0136085 0)
(-0.0170376 0.0208104 0)
(-0.0300369 0.025484 0)
(-0.0443313 0.0277026 0)
(-0.058858 0.0276746 0)
(-0.0726276 0.0255377 0)
(-0.0846855 0.02134 0)
(-0.0940975 0.0151359 0)
(-0.0999854 0.00712368 0)
(-0.101611 -0.0022314 0)
(-0.098489 -0.0121261 0)
(-0.0905263 -0.021423 0)
(-0.078156 -0.0287656 0)
(-0.0624327 -0.0328098 0)
(-0.0450413 -0.0325752 0)
(-0.0281365 -0.027852 0)
(-0.0139533 -0.0195312 0)
(-0.00427986 -0.00968956 0)
(-3.67452e-05 -0.00145391 0)
(-0.000749476 0.00858591 0)
(-0.00873453 0.0232231 0)
(-0.0217572 0.0340084 0)
(-0.0377472 0.040708 0)
(-0.0550696 0.0436821 0)
(-0.0725334 0.0433077 0)
(-0.0890653 0.0398 0)
(-0.103642 0.0332375 0)
(-0.115252 0.0237105 0)
(-0.122922 0.011508 0)
(-0.125778 -0.00271767 0)
(-0.123155 -0.0178504 0)
(-0.114741 -0.0322887 0)
(-0.100762 -0.0440698 0)
(-0.0821598 -0.0511484 0)
(-0.06072 -0.0518787 0)
(-0.039016 -0.045645 0)
(-0.0200254 -0.0334486 0)
(-0.00647555 -0.0181169 0)
(-0.000142611 -0.00399552 0)
(-0.000928992 0.013652 0)
(-0.010474 0.0349845 0)
(-0.025781 0.0498633 0)
(-0.0443534 0.0587535 0)
(-0.0643133 0.0624733 0)
(-0.0843891 0.0616601 0)
(-0.103482 0.0566439 0)
(-0.120561 0.0475362 0)
(-0.134592 0.034439 0)
(-0.144529 0.0176834 0)
(-0.14935 -0.0019593 0)
(-0.148143 -0.023118 0)
(-0.140252 -0.0437776 0)
(-0.125525 -0.0613285 0)
(-0.104586 -0.0728596 0)
(-0.0791486 -0.0757479 0)
(-0.0521528 -0.0685669 0)
(-0.0274798 -0.0520933 0)
(-0.00917242 -0.0298488 0)
(-0.000263039 -0.00771143 0)
(-0.00106415 0.01955 0)
(-0.0118207 0.0485123 0)
(-0.0289284 0.0679285 0)
(-0.0495611 0.0791772 0)
(-0.071663 0.0836881 0)
(-0.0939308 0.0824518 0)
(-0.115296 0.0759551 0)
(-0.134778 0.064342 0)
(-0.151377 0.0476874 0)
(-0.164013 0.0262883 0)
(-0.17152 0.000927579 0)
(-0.172713 -0.0269015 0)
(-0.166516 -0.0548581 0)
(-0.152216 -0.0797061 0)
(-0.129883 -0.0975255 0)
(-0.100876 -0.104346 0)
(-0.0682986 -0.0973477 0)
(-0.036982 -0.0764847 0)
(-0.0127231 -0.0457401 0)
(-0.000442406 -0.0129303 0)
(-0.0011474 0.0260491 0)
(-0.0127033 0.0633383 0)
(-0.0310253 0.0876417 0)
(-0.0530634 0.101405 0)
(-0.0766519 0.106797 0)
(-0.100503 0.10525 0)
(-0.123629 0.0974533 0)
(-0.145161 0.0835862 0)
(-0.164195 0.0636532 0)
(-0.17969 0.0378277 0)
(-0.190403 0.00676897 0)
(-0.194903 -0.0280868 0)
(-0.191664 -0.0642348 0)
(-0.179316 -0.097931 0)
(-0.157115 -0.1242 0)
(-0.125675 -0.137381 0)
(-0.0878203 -0.132522 0)
(-0.0491218 -0.107782 0)
(-0.0175175 -0.0669668 0)
(-0.00073589 -0.0201853 0)
(-0.0011745 0.0328835 0)
(-0.0130748 0.0789142 0)
(-0.0319386 0.108322 0)
(-0.0545909 0.124703 0)
(-0.0788163 0.131065 0)
(-0.103382 0.129365 0)
(-0.127427 0.120549 0)
(-0.150256 0.104845 0)
(-0.171139 0.0821582 0)
(-0.189172 0.0524529 0)
(-0.203158 0.0161227 0)
(-0.211539 -0.0256436 0)
(-0.212433 -0.0704304 0)
(-0.203797 -0.114241 0)
(-0.183882 -0.151184 0)
(-0.152105 -0.173721 0)
(-0.110331 -0.174007 0)
(-0.0642267 -0.147003 0)
(-0.0239582 -0.094948 0)
(-0.00121934 -0.0302314 0)
(-0.00115211 0.0397746 0)
(-0.0129514 0.0946435 0)
(-0.031645 0.129187 0)
(-0.0540085 0.148169 0)
(-0.0778219 0.155511 0)
(-0.101942 0.153778 0)
(-0.125678 0.144237 0)
(-0.148564 0.127202 0)
(-0.170135 0.102471 0)
(-0.189746 0.0697516 0)
(-0.206413 0.0290549 0)
(-0.21865 -0.0188791 0)
(-0.224435 -0.0720073 0)
(-0.221212 -0.126499 0)
(-0.206178 -0.175938 0)
(-0.177175 -0.21106 0)
(-0.134277 -0.220575 0)
(-0.0820892 -0.194543 0)
(-0.0324185 -0.131155 0)
(-0.00200618 -0.0440614 0)
(-0.00110814 0.046481 0)
(-0.0124655 0.109951 0)
(-0.0303211 0.149408 0)
(-0.0514394 0.170759 0)
(-0.0736286 0.178912 0)
(-0.0958762 0.177127 0)
(-0.117708 0.167066 0)
(-0.138943 0.149187 0)
(-0.15946 0.123217 0)
(-0.179003 0.0886065 0)
(-0.196984 0.0449344 0)
(-0.212217 -0.00764475 0)
(-0.222888 -0.0679071 0)
(-0.226263 -0.132533 0)
(-0.218677 -0.195281 0)
(-0.196273 -0.245794 0)
(-0.156579 -0.269347 0)
(-0.101585 -0.249514 0)
(-0.0431352 -0.176741 0)
(-0.00326998 -0.0629065 0)
(-0.0011069 0.0528832 0)
(-0.0119327 0.124393 0)
(-0.0284434 0.168201 0)
(-0.0473926 0.191354 0)
(-0.0666478 0.199859 0)
(-0.0854011 0.197762 0)
(-0.103459 0.187199 0)
(-0.120983 0.168841 0)
(-0.13826 0.142409 0)
(-0.1555 0.107143 0)
(-0.172649 0.0622015 0)
(-0.189207 0.00706698 0)
(-0.203793 -0.0579732 0)
(-0.213873 -0.130723 0)
(-0.21557 -0.205944 0)
(-0.203596 -0.273312 0)
(-0.172565 -0.315551 0)
(-0.120268 -0.308992 0)
(-0.0559809 -0.231926 0)
(-0.00526555 -0.0881853 0)
(-0.00127536 0.0591181 0)
(-0.0119406 0.137816 0)
(-0.0268886 0.184935 0)
(-0.0428557 0.208841 0)
(-0.057831 0.216837 0)
(-0.0713609 0.213855 0)
(-0.0836425 0.202567 0)
(-0.0952482 0.183907 0)
(-0.106907 0.15766 0)
(-0.119345 0.122941 0)
(-0.133119 0.0785672 0)
(-0.148431 0.0233888 0)
(-0.164749 -0.043202 0)
(-0.180359 -0.120611 0)
(-0.191765 -0.205405 0)
(-0.193077 -0.288789 0)
(-0.176357 -0.35283 0)
(-0.134125 -0.367494 0)
(-0.0700771 -0.295127 0)
(-0.00832529 -0.121336 0)
(-0.00185179 0.065785 0)
(-0.0134767 0.150529 0)
(-0.0270113 0.199229 0)
(-0.0392918 0.222156 0)
(-0.0485859 0.22828 0)
(-0.0550787 0.223507 0)
(-0.0595383 0.211038 0)
(-0.0630297 0.192071 0)
(-0.0667381 0.166486 0)
(-0.0718704 0.133361 0)
(-0.0795615 0.0913105 0)
(-0.0907392 0.0387362 0)
(-0.105845 -0.0258631 0)
(-0.124361 -0.103392 0)
(-0.144015 -0.192807 0)
(-0.159537 -0.288367 0)
(-0.161684 -0.374228 0)
(-0.137692 -0.41705 0)
(-0.0832695 -0.36199 0)
(-0.0127817 -0.163449 0)
(-0.003289 0.0743069 0)
(-0.0181056 0.163512 0)
(-0.0306102 0.210973 0)
(-0.0383563 0.230245 0)
(-0.0402685 0.232546 0)
(-0.0376651 0.224768 0)
(-0.0321427 0.21051 0)
(-0.0253566 0.191122 0)
(-0.0189346 0.166538 0)
(-0.0144834 0.135833 0)
(-0.013594 0.0975488 0)
(-0.0178019 0.0498621 0)
(-0.0284548 -0.00927734 0)
(-0.0463651 -0.0819623 0)
(-0.071093 -0.169521 0)
(-0.0993345 -0.27031 0)
(-0.122661 -0.373611 0)
(-0.124416 -0.448026 0)
(-0.0915645 -0.424583 0)
(-0.0187135 -0.214543 0)
(-0.00636627 0.0873826 0)
(-0.0280359 0.17821 0)
(-0.0393356 0.219789 0)
(-0.0406646 0.231494 0)
(-0.0324421 0.227465 0)
(-0.0179034 0.215332 0)
(0.000214461 0.198731 0)
(0.0195914 0.178891 0)
(0.0382132 0.15566 0)
(0.0542015 0.128092 0)
(0.0656821 0.0947404 0)
(0.0707191 0.0537797 0)
(0.0672773 0.00302139 0)
(0.0533979 -0.0602089 0)
(0.0275499 -0.138919 0)
(-0.00986741 -0.23558 0)
(-0.053841 -0.346977 0)
(-0.0866646 -0.450275 0)
(-0.0885408 -0.4708 0)
(-0.0253089 -0.272231 0)
(-0.0125261 0.110608 0)
(-0.045239 0.196685 0)
(-0.0514989 0.224492 0)
(-0.0409513 0.223056 0)
(-0.0171425 0.209763 0)
(0.0137994 0.192132 0)
(0.0478673 0.173058 0)
(0.0822203 0.153161 0)
(0.114684 0.13196 0)
(0.14335 0.108404 0)
(0.166305 0.0811111 0)
(0.181477 0.0484235 0)
(0.186442 0.00836781 0)
(0.178531 -0.0416476 0)
(0.154664 -0.105153 0)
(0.112383 -0.187455 0)
(0.0511403 -0.293329 0)
(-0.0143594 -0.414463 0)
(-0.0643553 -0.485095 0)
(-0.029593 -0.33044 0)
(-0.021611 0.148424 0)
(-0.0652373 0.213118 0)
(-0.0494206 0.215048 0)
(-0.0130826 0.195055 0)
(0.0358112 0.171572 0)
(0.0886344 0.149562 0)
(0.141155 0.129812 0)
(0.190932 0.111733 0)
(0.23633 0.0942994 0)
(0.275933 0.0763428 0)
(0.308196 0.0566241 0)
(0.331278 0.0338116 0)
(0.342741 0.00637785 0)
(0.339771 -0.0276319 0)
(0.318455 -0.0712102 0)
(0.274606 -0.130246 0)
(0.202132 -0.214977 0)
(0.107912 -0.334966 0)
(-0.00322147 -0.451453 0)
(-0.0232678 -0.378726 0)
(-0.0274704 0.229343 0)
(-0.03649 0.223124 0)
(0.0465573 0.176947 0)
(0.127029 0.138729 0)
(0.205565 0.109483 0)
(0.277433 0.0878574 0)
(0.341716 0.071562 0)
(0.398396 0.0585708 0)
(0.447525 0.0473821 0)
(0.488862 0.0368482 0)
(0.521707 0.0260185 0)
(0.544846 0.0140354 0)
(0.556332 1.96445e-05 0)
(0.553837 -0.0170228 0)
(0.533327 -0.0390764 0)
(0.490563 -0.070448 0)
(0.415304 -0.12093 0)
(0.304892 -0.213374 0)
(0.125873 -0.348318 0)
(0.023666 -0.378789 0)
(0.214442 0.135799 0)
(0.285143 0.098452 0)
(0.444662 0.0569163 0)
(0.547916 0.0365835 0)
(0.621656 0.0241675 0)
(0.678233 0.0163187 0)
(0.722797 0.0113343 0)
(0.75838 0.00800587 0)
(0.786816 0.0055733 0)
(0.808999 0.00357221 0)
(0.825114 0.00169583 0)
(0.834835 -0.000269201 0)
(0.837293 -0.00250495 0)
(0.831178 -0.00504957 0)
(0.813543 -0.00850134 0)
(0.78194 -0.0135053 0)
(0.724082 -0.0231772 0)
(0.635277 -0.0406023 0)
(0.43131 -0.0912954 0)
(0.270899 -0.153523 0)
)
;

boundaryField
{
    movingWall
    {
        type            fixedValue;
        value           uniform (1 0 0);
    }
    fixedWalls
    {
        type            fixedValue;
        value           uniform (0 0 0);
    }
    frontAndBack
    {
        type            empty;
    }
}


// ************************************************************************* //
