/*--------------------------------*- C++ -*----------------------------------*\
  =========                 |
  \\      /  F ield         | OpenFOAM: The Open Source CFD Toolbox
   \\    /   O peration     | Website:  https://openfoam.org
    \\  /    A nd           | Version:  13
     \\/     M anipulation  |
\*---------------------------------------------------------------------------*/
FoamFile
{
    format      ascii;
    class       volVectorField;
    location    "16";
    object      U_0;
}
// * * * * * * * * * * * * * * * * * * * * * * * * * * * * * * * * * * * * * //

dimensions      [0 1 -1 0 0 0 0];

internalField   nonuniform List<vector> 
400
(
(0.000213196 -0.00021357 0)
(-9.41342e-05 -1.47245e-05 0)
(-0.00151324 0.000202261 0)
(-0.00375949 0.000340298 0)
(-0.0065072 0.000412838 0)
(-0.00946138 0.000440991 0)
(-0.0123728 0.000435281 0)
(-0.0150088 0.000395219 0)
(-0.0171298 0.000314319 0)
(-0.01849 0.000187035 0)
(-0.0188636 1.57073e-05 0)
(-0.0180949 -0.000186698 0)
(-0.0161579 -0.000388292 0)
(-0.0132066 -0.000547269 0)
(-0.00959735 -0.000619459 0)
(-0.00585785 -0.000572644 0)
(-0.00259578 -0.000400626 0)
(-0.000345789 -0.000134542 0)
(0.000584593 0.000143337 0)
(0.000319794 0.000306633 0)
(2.22778e-06 9.16247e-05 0)
(-0.00201574 0.00187168 0)
(-0.00640905 0.00366326 0)
(-0.0125334 0.0049008 0)
(-0.0196752 0.00555416 0)
(-0.0271806 0.0056935 0)
(-0.0344467 0.00536907 0)
(-0.0408946 0.00458844 0)
(-0.0459483 0.00334288 0)
(-0.0490531 0.00165201 0)
(-0.0497408 -0.000392516 0)
(-0.0477214 -0.00260084 0)
(-0.0429936 -0.00468031 0)
(-0.0359353 -0.00627447 0)
(-0.0273275 -0.00703671 0)
(-0.0182932 -0.00673402 0)
(-0.010119 -0.00535331 0)
(-0.00396735 -0.00317875 0)
(-0.000523921 -0.000841786 0)
(0.000244332 0.000613303 0)
(-0.000277507 0.00167919 0)
(-0.00438426 0.00642816 0)
(-0.0118205 0.0106032 0)
(-0.0215114 0.0134248 0)
(-0.0324276 0.01485 0)
(-0.0436803 0.0149962 0)
(-0.0544303 0.0139513 0)
(-0.0638652 0.0117391 0)
(-0.0711874 0.00837476 0)
(-0.0756494 0.0039546 0)
(-0.0766355 -0.00126044 0)
(-0.0737751 -0.00679458 0)
(-0.0670679 -0.0119656 0)
(-0.0569914 -0.0159611 0)
(-0.0445455 -0.0179965 0)
(-0.0311995 -0.0175357 0)
(-0.0186945 -0.0145278 0)
(-0.00868833 -0.00958331 0)
(-0.00231732 -0.00402885 0)
(8.92408e-05 6.58195e-05 0)
(-0.000531452 0.00454317 0)
(-0.0066765 0.0136084 0)
(-0.0170375 0.0208102 0)
(-0.0300366 0.0254839 0)
(-0.044331 0.0277024 0)
(-0.0588576 0.0276745 0)
(-0.0726271 0.0255376 0)
(-0.084685 0.0213399 0)
(-0.0940969 0.0151359 0)
(-0.0999848 0.00712368 0)
(-0.10161 -0.00223135 0)
(-0.0984884 -0.012126 0)
(-0.0905259 -0.0214228 0)
(-0.0781556 -0.0287654 0)
(-0.0624324 -0.0328096 0)
(-0.0450411 -0.0325751 0)
(-0.0281364 -0.0278519 0)
(-0.0139533 -0.0195311 0)
(-0.00427985 -0.00968954 0)
(-3.67464e-05 -0.00145391 0)
(-0.00074947 0.00858586 0)
(-0.00873447 0.0232229 0)
(-0.0217571 0.0340082 0)
(-0.0377469 0.0407078 0)
(-0.0550692 0.0436818 0)
(-0.0725329 0.0433074 0)
(-0.0890648 0.0397997 0)
(-0.103641 0.0332373 0)
(-0.115252 0.0237105 0)
(-0.122921 0.011508 0)
(-0.125777 -0.00271758 0)
(-0.123154 -0.0178502 0)
(-0.11474 -0.0322884 0)
(-0.100761 -0.0440695 0)
(-0.0821595 -0.0511481 0)
(-0.0607197 -0.0518784 0)
(-0.0390158 -0.0456448 0)
(-0.0200253 -0.0334485 0)
(-0.00647553 -0.0181168 0)
(-0.000142611 -0.00399552 0)
(-0.000928985 0.0136519 0)
(-0.0104739 0.0349842 0)
(-0.0257808 0.049863 0)
(-0.0443531 0.0587532 0)
(-0.0643129 0.0624729 0)
(-0.0843886 0.0616597 0)
(-0.103482 0.0566436 0)
(-0.12056 0.047536 0)
(-0.134592 0.0344389 0)
(-0.144528 0.0176834 0)
(-0.14935 -0.00195918 0)
(-0.148142 -0.0231178 0)
(-0.140252 -0.0437773 0)
(-0.125525 -0.0613282 0)
(-0.104586 -0.0728592 0)
(-0.0791483 -0.0757475 0)
(-0.0521526 -0.0685666 0)
(-0.0274797 -0.0520931 0)
(-0.00917239 -0.0298487 0)
(-0.000263039 -0.00771141 0)
(-0.00106415 0.0195498 0)
(-0.0118206 0.048512 0)
(-0.0289282 0.0679281 0)
(-0.0495608 0.0791767 0)
(-0.0716625 0.0836876 0)
(-0.0939303 0.0824513 0)
(-0.115295 0.0759547 0)
(-0.134778 0.0643418 0)
(-0.151376 0.0476872 0)
(-0.164012 0.0262883 0)
(-0.171519 0.000927727 0)
(-0.172712 -0.0269012 0)
(-0.166515 -0.0548577 0)
(-0.152215 -0.0797056 0)
(-0.129882 -0.097525 0)
(-0.100876 -0.104346 0)
(-0.0682984 -0.0973473 0)
(-0.0369819 -0.0764844 0)
(-0.0127231 -0.0457399 0)
(-0.000442404 -0.0129303 0)
(-0.00114739 0.0260489 0)
(-0.0127033 0.0633379 0)
(-0.0310251 0.0876411 0)
(-0.0530631 0.101405 0)
(-0.0766515 0.106797 0)
(-0.100503 0.10525 0)
(-0.123629 0.0974529 0)
(-0.145161 0.0835858 0)
(-0.164195 0.063653 0)
(-0.179689 0.0378277 0)
(-0.190402 0.00676914 0)
(-0.194902 -0.0280865 0)
(-0.191664 -0.0642344 0)
(-0.179315 -0.0979305 0)
(-0.157115 -0.1242 0)
(-0.125674 -0.13738 0)
(-0.08782 -0.132521 0)
(-0.0491216 -0.107782 0)
(-0.0175174 -0.0669666 0)
(-0.000735887 -0.0201852 0)
(-0.0011745 0.0328833 0)
(-0.0130748 0.0789137 0)
(-0.0319384 0.108321 0)
(-0.0545907 0.124702 0)
(-0.078816 0.131064 0)
(-0.103381 0.129364 0)
(-0.127427 0.120548 0)
(-0.150255 0.104845 0)
(-0.171139 0.082158 0)
(-0.189172 0.0524529 0)
(-0.203158 0.0161228 0)
(-0.211539 -0.0256432 0)
(-0.212432 -0.0704299 0)
(-0.203796 -0.114241 0)
(-0.183882 -0.151183 0)
(-0.152105 -0.17372 0)
(-0.110331 -0.174006 0)
(-0.0642266 -0.147002 0)
(-0.0239581 -0.0949477 0)
(-0.00121934 -0.0302313 0)
(-0.00115211 0.0397744 0)
(-0.0129514 0.0946429 0)
(-0.0316449 0.129186 0)
(-0.0540083 0.148168 0)
(-0.0778217 0.15551 0)
(-0.101942 0.153777 0)
(-0.125678 0.144237 0)
(-0.148564 0.127201 0)
(-0.170135 0.102471 0)
(-0.189746 0.0697516 0)
(-0.206413 0.0290551 0)
(-0.21865 -0.0188788 0)
(-0.224435 -0.0720068 0)
(-0.221212 -0.126499 0)
(-0.206177 -0.175937 0)
(-0.177175 -0.211059 0)
(-0.134276 -0.220575 0)
(-0.082089 -0.194543 0)
(-0.0324185 -0.131154 0)
(-0.00200617 -0.0440613 0)
(-0.00110814 0.0464807 0)
(-0.0124655 0.10995 0)
(-0.0303211 0.149408 0)
(-0.0514394 0.170759 0)
(-0.0736285 0.178912 0)
(-0.0958762 0.177126 0)
(-0.117708 0.167066 0)
(-0.138943 0.149186 0)
(-0.15946 0.123217 0)
(-0.179003 0.0886065 0)
(-0.196984 0.0449346 0)
(-0.212217 -0.00764438 0)
(-0.222888 -0.0679066 0)
(-0.226263 -0.132532 0)
(-0.218677 -0.19528 0)
(-0.196273 -0.245793 0)
(-0.156579 -0.269347 0)
(-0.101585 -0.249513 0)
(-0.0431351 -0.17674 0)
(-0.00326997 -0.0629063 0)
(-0.0011069 0.052883 0)
(-0.0119327 0.124392 0)
(-0.0284435 0.1682 0)
(-0.0473926 0.191353 0)
(-0.0666479 0.199858 0)
(-0.0854012 0.197761 0)
(-0.103459 0.187199 0)
(-0.120984 0.168841 0)
(-0.13826 0.142409 0)
(-0.155501 0.107143 0)
(-0.172649 0.0622018 0)
(-0.189207 0.00706734 0)
(-0.203793 -0.0579727 0)
(-0.213873 -0.130722 0)
(-0.215571 -0.205943 0)
(-0.203596 -0.273311 0)
(-0.172565 -0.31555 0)
(-0.120268 -0.308992 0)
(-0.0559808 -0.231926 0)
(-0.00526554 -0.0881851 0)
(-0.00127537 0.0591179 0)
(-0.0119407 0.137815 0)
(-0.0268887 0.184935 0)
(-0.0428559 0.20884 0)
(-0.0578313 0.216836 0)
(-0.0713612 0.213854 0)
(-0.0836428 0.202567 0)
(-0.0952486 0.183907 0)
(-0.106908 0.15766 0)
(-0.119345 0.122941 0)
(-0.133119 0.0785674 0)
(-0.148431 0.0233891 0)
(-0.164749 -0.0432016 0)
(-0.180359 -0.12061 0)
(-0.191765 -0.205405 0)
(-0.193078 -0.288789 0)
(-0.176357 -0.352829 0)
(-0.134125 -0.367494 0)
(-0.070077 -0.295126 0)
(-0.00832529 -0.121336 0)
(-0.0018518 0.0657848 0)
(-0.0134768 0.150528 0)
(-0.0270115 0.199229 0)
(-0.0392921 0.222156 0)
(-0.0485862 0.228279 0)
(-0.0550792 0.223506 0)
(-0.0595388 0.211037 0)
(-0.0630303 0.19207 0)
(-0.0667387 0.166486 0)
(-0.071871 0.133361 0)
(-0.0795621 0.0913107 0)
(-0.0907398 0.0387366 0)
(-0.105845 -0.0258627 0)
(-0.124362 -0.103391 0)
(-0.144016 -0.192807 0)
(-0.159537 -0.288366 0)
(-0.161684 -0.374228 0)
(-0.137692 -0.417049 0)
(-0.0832695 -0.36199 0)
(-0.0127817 -0.163449 0)
(-0.00328901 0.0743068 0)
(-0.0181057 0.163511 0)
(-0.0306104 0.210972 0)
(-0.0383567 0.230244 0)
(-0.040269 0.232546 0)
(-0.0376657 0.224767 0)
(-0.0321434 0.21051 0)
(-0.0253573 0.191122 0)
(-0.0189354 0.166538 0)
(-0.0144842 0.135833 0)
(-0.0135947 0.097549 0)
(-0.0178026 0.0498624 0)
(-0.0284555 -0.00927699 0)
(-0.0463657 -0.0819619 0)
(-0.0710935 -0.169521 0)
(-0.0993349 -0.270309 0)
(-0.122661 -0.373611 0)
(-0.124416 -0.448026 0)
(-0.0915645 -0.424582 0)
(-0.0187135 -0.214543 0)
(-0.00636628 0.0873826 0)
(-0.028036 0.17821 0)
(-0.0393359 0.219789 0)
(-0.040665 0.231494 0)
(-0.0324426 0.227464 0)
(-0.017904 0.215332 0)
(0.000213719 0.198731 0)
(0.0195906 0.17889 0)
(0.0382124 0.15566 0)
(0.0542007 0.128092 0)
(0.0656814 0.0947406 0)
(0.0707183 0.0537799 0)
(0.0672766 0.00302168 0)
(0.0533973 -0.0602086 0)
(0.0275494 -0.138918 0)
(-0.00986786 -0.23558 0)
(-0.0538413 -0.346977 0)
(-0.0866648 -0.450275 0)
(-0.0885409 -0.4708 0)
(-0.0253089 -0.272231 0)
(-0.0125261 0.110608 0)
(-0.0452391 0.196685 0)
(-0.0514991 0.224492 0)
(-0.0409516 0.223056 0)
(-0.017143 0.209763 0)
(0.0137987 0.192132 0)
(0.0478666 0.173058 0)
(0.0822196 0.153161 0)
(0.114683 0.13196 0)
(0.143349 0.108405 0)
(0.166304 0.0811112 0)
(0.181476 0.0484237 0)
(0.186442 0.00836803 0)
(0.178531 -0.0416474 0)
(0.154663 -0.105152 0)
(0.112382 -0.187454 0)
(0.05114 -0.293329 0)
(-0.0143596 -0.414463 0)
(-0.0643554 -0.485095 0)
(-0.029593 -0.33044 0)
(-0.021611 0.148424 0)
(-0.0652374 0.213118 0)
(-0.0494208 0.215048 0)
(-0.0130828 0.195055 0)
(0.0358108 0.171572 0)
(0.0886339 0.149562 0)
(0.141155 0.129812 0)
(0.190931 0.111733 0)
(0.236329 0.0942994 0)
(0.275932 0.0763428 0)
(0.308195 0.0566242 0)
(0.331278 0.0338118 0)
(0.34274 0.00637799 0)
(0.339771 -0.0276317 0)
(0.318455 -0.0712101 0)
(0.274606 -0.130246 0)
(0.202131 -0.214977 0)
(0.107912 -0.334965 0)
(-0.00322155 -0.451453 0)
(-0.0232679 -0.378726 0)
(-0.0274704 0.229343 0)
(-0.03649 0.223124 0)
(0.0465573 0.176947 0)
(0.127029 0.138729 0)
(0.205565 0.109483 0)
(0.277432 0.0878573 0)
(0.341716 0.0715619 0)
(0.398396 0.0585707 0)
(0.447525 0.0473821 0)
(0.488862 0.0368482 0)
(0.521707 0.0260186 0)
(0.544845 0.0140354 0)
(0.556332 1.97137e-05 0)
(0.553837 -0.0170228 0)
(0.533327 -0.0390763 0)
(0.490562 -0.070448 0)
(0.415304 -0.12093 0)
(0.304892 -0.213374 0)
(0.125873 -0.348318 0)
(0.0236659 -0.378789 0)
(0.214442 0.135799 0)
(0.285143 0.098452 0)
(0.444662 0.0569163 0)
(0.547916 0.0365834 0)
(0.621656 0.0241675 0)
(0.678233 0.0163187 0)
(0.722797 0.0113343 0)
(0.758379 0.00800587 0)
(0.786815 0.0055733 0)
(0.808998 0.00357222 0)
(0.825114 0.00169584 0)
(0.834835 -0.000269189 0)
(0.837293 -0.00250494 0)
(0.831178 -0.00504956 0)
(0.813543 -0.00850134 0)
(0.78194 -0.0135053 0)
(0.724082 -0.0231772 0)
(0.635277 -0.0406023 0)
(0.43131 -0.0912954 0)
(0.270899 -0.153523 0)
)
;

boundaryField
{
    movingWall
    {
        type            calculated;
        value           uniform (1 0 0);
    }
    fixedWalls
    {
        type            calculated;
        value           uniform (0 0 0);
    }
    frontAndBack
    {
        type            empty;
    }
}


// ************************************************************************* //
