/*--------------------------------*- C++ -*----------------------------------*\
  =========                 |
  \\      /  F ield         | OpenFOAM: The Open Source CFD Toolbox
   \\    /   O peration     | Website:  https://openfoam.org
    \\  /    A nd           | Version:  13
     \\/     M anipulation  |
\*---------------------------------------------------------------------------*/
FoamFile
{
    format      ascii;
    class       volScalarField;
    location    "42";
    object      p;
}
// * * * * * * * * * * * * * * * * * * * * * * * * * * * * * * * * * * * * * //

dimensions      [0 2 -2 0 0 0 0];

internalField   nonuniform List<scalar> 
400
(
3.68074e-08
-0.000572498
-0.0012161
-0.00171897
-0.0019593
-0.00188479
-0.00147059
-0.000705632
0.000401196
0.00180585
0.00341458
0.00507491
0.00659094
0.007751
0.0083797
0.00839553
0.00785524
0.0069688
0.00604792
0.00549425
0.000569871
-2.0403e-05
-0.000569788
-0.000957147
-0.00113212
-0.00106208
-0.000726085
-0.000109352
0.000788665
0.00193935
0.00326968
0.00466002
0.0059406
0.00692971
0.00747415
0.00750169
0.00705912
0.00631874
0.00554316
0.00497255
0.00124562
0.000492893
-8.68205e-05
-0.000441474
-0.000606258
-0.000576397
-0.000337386
0.000132481
0.000849586
0.00180678
0.00295475
0.00419169
0.00536434
0.00629373
0.00681916
0.00685282
0.00642067
0.0056681
0.00480884
0.00403709
0.0017405
0.000763612
7.35707e-05
-0.000322044
-0.000537228
-0.000592842
-0.00047834
-0.000160266
0.000399923
0.00122199
0.00228159
0.00349277
0.00470162
0.00570965
0.00631932
0.00639808
0.00593344
0.00505049
0.00394832
0.00284435
0.00179539
0.000595648
-0.00022778
-0.000704916
-0.00101824
-0.00120733
-0.00125946
-0.0011231
-0.000730594
-2.7918e-05
0.00099167
0.00226352
0.00362999
0.00486118
0.00569861
0.00593226
0.00548034
0.00443542
0.00299986
0.00146202
0.00119463
-0.0002031
-0.00116336
-0.00175278
-0.00221149
-0.00259075
-0.00286935
-0.00297129
-0.00279201
-0.002233
-0.00124413
0.000150459
0.00179279
0.00341978
0.00469017
0.00527468
0.00497185
0.00380562
0.00197895
-0.000104107
-0.000241688
-0.00180016
-0.00289231
-0.00362228
-0.00427777
-0.0049167
-0.00550514
-0.00593761
-0.00606463
-0.00572851
-0.00480698
-0.00328523
-0.00127039
0.000946642
0.00292624
0.00416981
0.00427921
0.0031355
0.00090256
-0.00185631
-0.002652
-0.00432641
-0.00554131
-0.00643933
-0.00734716
-0.00832778
-0.00933394
-0.0102288
-0.0108113
-0.0108505
-0.0101336
-0.00853905
-0.00610711
-0.0031123
-8.64746e-05
0.00225499
0.00321261
0.00239523
-0.000177417
-0.003753
-0.0061214
-0.00786175
-0.00918478
-0.0102718
-0.011483
-0.0128894
-0.0144345
-0.0159529
-0.0171897
-0.0178277
-0.0175354
-0.0160428
-0.0132531
-0.00935755
-0.00493608
-0.000941462
0.00150803
0.00155453
-0.0011372
-0.00564685
-0.0106715
-0.0124237
-0.0138275
-0.0151021
-0.0166422
-0.0185358
-0.0207272
-0.0230305
-0.0251405
-0.0266492
-0.0270841
-0.0259776
-0.0230343
-0.0182542
-0.0121678
-0.00592219
-0.00114234
0.000602966
-0.00173145
-0.00719521
-0.0162605
-0.0179654
-0.0193958
-0.0208062
-0.0226415
-0.0250234
-0.0279114
-0.0311115
-0.0342775
-0.0369139
-0.0383954
-0.0380068
-0.0352842
-0.0298336
-0.0220052
-0.0130065
-0.00495988
-0.000375631
-0.00151609
-0.00772074
-0.022803
-0.0243901
-0.0257427
-0.0271484
-0.0291435
-0.0319106
-0.0354424
-0.0395494
-0.0438549
-0.0477847
-0.05058
-0.0513772
-0.0491635
-0.043394
-0.0339889
-0.0219777
-0.009806
-0.00102484
0.000279976
-0.00600007
-0.0302226
-0.0315863
-0.0326696
-0.033792
-0.0356681
-0.0385799
-0.042569
-0.047455
-0.0528343
-0.0580627
-0.0622511
-0.0643106
-0.0630223
-0.0573321
-0.0466929
-0.031705
-0.0148012
-0.000417145
0.00496553
2.27339e-05
-0.03856
-0.0394895
-0.0399612
-0.040327
-0.041635
-0.0443096
-0.0484456
-0.0538594
-0.0601059
-0.0664654
-0.0719295
-0.0752216
-0.0748704
-0.0694214
-0.0578071
-0.0400022
-0.0180233
0.00327947
0.0146985
0.0135557
-0.0481748
-0.048157
-0.0474035
-0.0462842
-0.0464121
-0.0483713
-0.0522815
-0.0579132
-0.0647394
-0.0719354
-0.0783607
-0.0825613
-0.0828323
-0.0773739
-0.0646453
-0.043937
-0.0165435
0.0130188
0.032931
0.0392807
-0.060235
-0.0579577
-0.0548672
-0.0512135
-0.0494272
-0.0501785
-0.0535204
-0.0590937
-0.0662201
-0.0739188
-0.0808795
-0.0854535
-0.085707
-0.0795199
-0.064942
-0.0406113
-0.00697892
0.0328168
0.0647937
0.0836767
-0.0774815
-0.0694733
-0.0620875
-0.0545495
-0.050139
-0.0493251
-0.0519045
-0.0572611
-0.0644863
-0.072385
-0.07944
-0.0837784
-0.0832185
-0.075283
-0.0576215
-0.0282113
0.0133524
0.0666609
0.115752
0.154807
-0.108926
-0.0850402
-0.0697734
-0.0563916
-0.0485411
-0.0458812
-0.0476243
-0.0527151
-0.0599173
-0.0677771
-0.0745524
-0.0781401
-0.0761045
-0.0655426
-0.0436433
-0.00744514
0.0447431
0.114933
0.188078
0.263281
-0.168693
-0.100746
-0.0730932
-0.0522882
-0.0413103
-0.0376998
-0.0394421
-0.0448655
-0.0524158
-0.060447
-0.067074
-0.0700479
-0.0666876
-0.0537885
-0.0278899
0.0154098
0.0800715
0.17276
0.285854
0.445985
-0.402754
-0.139031
-0.0734592
-0.0447302
-0.0305719
-0.0266176
-0.0290857
-0.0353736
-0.0436542
-0.0522075
-0.0591241
-0.0621457
-0.0586176
-0.0452141
-0.0174509
0.0310786
0.108495
0.236657
0.427487
0.79368
)
;

boundaryField
{
    movingWall
    {
        type            zeroGradient;
    }
    fixedWalls
    {
        type            zeroGradient;
    }
    frontAndBack
    {
        type            empty;
    }
}


// ************************************************************************* //
