/*--------------------------------*- C++ -*----------------------------------*\
  =========                 |
  \\      /  F ield         | OpenFOAM: The Open Source CFD Toolbox
   \\    /   O peration     | Website:  https://openfoam.org
    \\  /    A nd           | Version:  13
     \\/     M anipulation  |
\*---------------------------------------------------------------------------*/
FoamFile
{
    format      ascii;
    class       volScalarField;
    location    "18";
    object      p;
}
// * * * * * * * * * * * * * * * * * * * * * * * * * * * * * * * * * * * * * //

dimensions      [0 2 -2 0 0 0 0];

internalField   nonuniform List<scalar> 
400
(
1.34006e-06
-0.000570687
-0.00121373
-0.001716
-0.00195576
-0.00188074
-0.00146613
-0.00070093
0.000405979
0.00181056
0.00341908
0.00507916
0.00659502
0.00775508
0.00838404
0.00840039
0.00786079
0.00697508
0.00605467
0.00550121
0.000570982
-1.89074e-05
-0.000567816
-0.000954657
-0.0011291
-0.00105853
-0.000722058
-0.000104944
0.000793317
0.00194409
0.0032744
0.00466464
0.00594515
0.00693432
0.00747901
0.00750701
0.00706503
0.00632526
0.00555011
0.00497969
0.00124615
0.000493922
-8.52846e-05
-0.000439421
-0.000603646
-0.000573187
-0.000333577
0.000136831
0.000854357
0.00181182
0.00295988
0.00419681
0.00536943
0.00629887
0.00682453
0.00685859
0.00642699
0.005675
0.00481619
0.0040447
0.0017405
0.000764244
7.47815e-05
-0.000320261
-0.00053479
-0.000589664
-0.000474379
-0.000155559
0.000405248
0.00122773
0.00228753
0.00349874
0.00470752
0.00571552
0.00632532
0.00640441
0.00594028
0.00505791
0.00395626
0.00285267
0.0017951
0.000596133
-0.000226637
-0.00070311
-0.00101562
-0.00120376
-0.00125484
-0.00111747
-0.0007241
-2.08206e-05
0.000999055
0.00227093
0.00363724
0.00486824
0.0057056
0.00593941
0.00548789
0.00444352
0.00300856
0.00147123
0.0011945
-0.000202357
-0.00116188
-0.00175051
-0.0022082
-0.00258621
-0.00286342
-0.00296401
-0.00278357
-0.00222374
-0.00123452
0.00016013
0.00180216
0.0034287
0.00469869
0.00528304
0.00498037
0.00381459
0.00198855
-9.38477e-05
-0.00024105
-0.00179864
-0.00288998
-0.00361899
-0.00427319
-0.00491053
-0.00549718
-0.00592788
-0.00605337
-0.00571614
-0.00479398
-0.00327229
-0.00125796
0.000958266
0.002937
0.00417992
0.00428906
0.00314555
0.00091321
-0.00184486
-0.00264995
-0.00432353
-0.00553757
-0.00643447
-0.00734072
-0.00831934
-0.00932326
-0.0102159
-0.0107964
-0.0108342
-0.0101165
-0.00852195
-0.0060907
-0.00309708
-7.26846e-05
0.00226747
0.00322421
0.00240661
-0.000165594
-0.00374031
-0.00611735
-0.00785701
-0.00917916
-0.0102649
-0.0114742
-0.0128782
-0.0144206
-0.0159364
-0.0171707
-0.0178069
-0.0175137
-0.016021
-0.0132321
-0.00933809
-0.00491862
-0.000926053
0.00152179
0.00156744
-0.00112417
-0.00563298
-0.0106651
-0.0124167
-0.0138197
-0.0150929
-0.0166309
-0.0185217
-0.02071
-0.0230102
-0.0251174
-0.0266241
-0.027058
-0.0259511
-0.0230088
-0.0182304
-0.0121465
-0.00590362
-0.0011262
0.000617508
-0.0017173
-0.00718042
-0.0162514
-0.017956
-0.0193857
-0.0207947
-0.0226277
-0.0250066
-0.0278912
-0.031088
-0.0342511
-0.0368852
-0.0383654
-0.0379752
-0.0352549
-0.0298065
-0.0219808
-0.0129852
-0.00494161
-0.000359672
-0.00150118
-0.00770557
-0.0227913
-0.0243785
-0.0257306
-0.027135
-0.0291278
-0.031892
-0.0354203
-0.0395238
-0.0438264
-0.047754
-0.0505484
-0.0513471
-0.0491333
-0.0433658
-0.0339634
-0.0219553
-0.00978666
-0.00100818
0.000295011
-0.00598534
-0.0302088
-0.0315729
-0.032656
-0.0337774
-0.0356515
-0.0385604
-0.0425461
-0.0474288
-0.0528052
-0.0580317
-0.0622194
-0.0642797
-0.0629931
-0.0573052
-0.0466688
-0.0316837
-0.0147827
-0.000401152
0.00497967
3.59525e-05
-0.0385447
-0.039475
-0.039947
-0.0403121
-0.0416185
-0.0442905
-0.0484233
-0.0538339
-0.0600779
-0.0664359
-0.0718998
-0.0751932
-0.0748445
-0.0693984
-0.057787
-0.0399847
-0.018008
0.00329294
0.0147104
0.0135662
-0.048159
-0.0481423
-0.0473896
-0.0462703
-0.046397
-0.048354
-0.0522612
-0.0578897
-0.0647136
-0.0719084
-0.078334
-0.0825366
-0.0828107
-0.0773559
-0.0646308
-0.0439252
-0.0165334
0.0130278
0.0329391
0.0392875
-0.0602198
-0.0579439
-0.0548548
-0.0512018
-0.0494149
-0.050164
-0.0535029
-0.0590731
-0.066197
-0.0738946
-0.080856
-0.0854324
-0.0856896
-0.0795069
-0.0649332
-0.0406056
-0.00697493
0.0328203
0.064797
0.0836793
-0.0774682
-0.0694616
-0.0620778
-0.0545411
-0.0501304
-0.0493143
-0.0518904
-0.0572435
-0.064466
-0.0723636
-0.0794192
-0.0837603
-0.0832044
-0.0752738
-0.057617
-0.0282106
0.0133509
0.0666594
0.115751
0.154806
-0.108915
-0.0850316
-0.0697673
-0.0563872
-0.0485363
-0.045874
-0.0476135
-0.0527004
-0.0598996
-0.067758
-0.0745338
-0.078124
-0.0760924
-0.0655356
-0.0436413
-0.00744713
0.0447386
0.114927
0.188073
0.263276
-0.168686
-0.10074
-0.07309
-0.0522867
-0.0413083
-0.0376953
-0.0394338
-0.0448532
-0.0524003
-0.0604297
-0.0670569
-0.0700331
-0.0666767
-0.053782
-0.0278882
0.0154074
0.0800664
0.172754
0.285848
0.44598
-0.402747
-0.139026
-0.0734568
-0.0447297
-0.0305712
-0.0266145
-0.0290789
-0.0353628
-0.04364
-0.0521913
-0.0591077
-0.062131
-0.0586061
-0.0452071
-0.0174484
0.0310772
0.108491
0.236651
0.427481
0.793674
)
;

boundaryField
{
    movingWall
    {
        type            zeroGradient;
    }
    fixedWalls
    {
        type            zeroGradient;
    }
    frontAndBack
    {
        type            empty;
    }
}


// ************************************************************************* //
