/*--------------------------------*- C++ -*----------------------------------*\
  =========                 |
  \\      /  F ield         | OpenFOAM: The Open Source CFD Toolbox
   \\    /   O peration     | Website:  https://openfoam.org
    \\  /    A nd           | Version:  13
     \\/     M anipulation  |
\*---------------------------------------------------------------------------*/
FoamFile
{
    format      ascii;
    class       surfaceScalarField;
    location    "18";
    object      phi;
}
// * * * * * * * * * * * * * * * * * * * * * * * * * * * * * * * * * * * * * //

dimensions      [0 3 -1 0 0 0 0];

internalField   nonuniform List<scalar> 
760
(
4.37768e-06
-4.3924e-06
-3.89759e-05
4.33536e-05
-0.000131118
9.21419e-05
-0.000256489
0.000125371
-0.00039932
0.000142831
-0.000546161
0.000146842
-0.000685081
0.00013892
-0.000804321
0.00011924
-0.00089173
8.74089e-05
-0.000935467
4.37369e-05
-0.000925833
-9.63449e-06
-0.00085821
-6.76224e-05
-0.000735654
-0.000122556
-0.000570902
-0.000164752
-0.000386159
-0.000184743
-0.000210053
-0.000176106
-7.16789e-05
-0.000138375
7.49306e-06
-7.91719e-05
2.3576e-05
-1.6083e-05
2.35761e-05
-4.70615e-05
4.2669e-05
-0.000209908
0.0002062
-0.000473559
0.000355793
-0.000805613
0.000457425
-0.00117218
0.000509396
-0.00154181
0.000516472
-0.00188503
0.000482141
-0.00217299
0.000407199
-0.00237739
0.000291815
-0.00247256
0.000138903
-0.00243953
-4.26668e-05
-0.00227072
-0.000236427
-0.00197557
-0.000417708
-0.00158299
-0.000557329
-0.00114074
-0.000626996
-0.000709335
-0.000607511
-0.000350367
-0.000497342
-0.00011062
-0.000318919
-5.68801e-06
-0.000121015
1.78881e-05
-0.000111392
0.000154061
-0.000405096
0.000499904
-0.000834281
0.000784979
-0.00134962
0.000972759
-0.00190423
0.00106401
-0.0024547
0.00106694
-0.00295974
0.000987186
-0.00337912
0.00082658
-0.00367418
0.000586876
-0.00381076
0.000275482
-0.00376412
-8.93136e-05
-0.0035248
-0.000475737
-0.00310466
-0.000837851
-0.00254059
-0.0011214
-0.00189448
-0.00127311
-0.0012469
-0.00125509
-0.000683302
-0.00106094
-0.000273831
-0.00072839
-5.21105e-05
-0.000342735
-3.42224e-05
-0.000173069
0.00032713
-0.000593351
0.000920185
-0.00117876
0.00137039
-0.00186103
0.00165502
-0.00258193
0.00178492
-0.00328973
0.00177473
-0.00393583
0.0016333
-0.00447304
0.00136379
-0.00485602
0.000969855
-0.00504428
0.000463741
-0.00500716
-0.000126433
-0.00473001
-0.000752889
-0.00422118
-0.00134668
-0.0035178
-0.00182479
-0.00268846
-0.00210245
-0.00182949
-0.00211405
-0.00105131
-0.00183913
-0.000454459
-0.00132524
-0.000101941
-0.000695253
-0.000136163
-0.000228159
0.000555288
-0.000763232
0.00145526
-0.0014903
0.00209746
-0.00232279
0.00248751
-0.00319275
0.00265489
-0.00404299
0.00262497
-0.00482108
0.00241139
-0.0054762
0.00201891
-0.00595873
0.00145238
-0.00622236
0.000727379
-0.00622865
-0.000120151
-0.00595285
-0.00102868
-0.00539272
-0.00190681
-0.00457722
-0.00264029
-0.00357457
-0.0031051
-0.00249404
-0.00319457
-0.00147531
-0.00285786
-0.000660767
-0.00213978
-0.000156554
-0.00119947
-0.000292717
-0.00027462
0.000829909
-0.000907682
0.00208832
-0.00175664
0.00294642
-0.00271936
0.00345023
-0.00372046
0.00365599
-0.00469993
0.00360444
-0.00560454
0.00331599
-0.00638269
0.00279706
-0.0069824
0.00205209
-0.00735187
0.00109685
-0.007443
-2.90219e-05
-0.00721596
-0.00125572
-0.0066506
-0.00247218
-0.00575824
-0.00353265
-0.0045972
-0.00426614
-0.00328401
-0.00450777
-0.00199032
-0.00415155
-0.00091385
-0.00321625
-0.000223192
-0.00189012
-0.000515909
-0.000310535
0.00114044
-0.00102033
0.00279812
-0.0019659
0.00389199
-0.00303337
0.0045177
-0.00414267
0.00476529
-0.0052336
0.00469537
-0.00625496
0.00433735
-0.00715725
0.00369935
-0.00788852
0.00278336
-0.00839289
0.00160122
-0.00861113
0.000189224
-0.00848707
-0.00137978
-0.00797529
-0.00298395
-0.00705935
-0.00444859
-0.00577448
-0.005551
-0.00423214
-0.00605011
-0.00263201
-0.00575168
-0.00123916
-0.0046091
-0.000311311
-0.00281797
-0.000827221
-0.000333991
0.00147443
-0.00109502
0.00355915
-0.00210603
0.00490299
-0.00324549
0.00565717
-0.00443133
0.00595113
-0.00560566
0.00586969
-0.00672206
0.00545376
-0.00773628
0.00471356
-0.00859975
0.00364683
-0.00925559
0.00225707
-0.00963699
0.000570624
-0.00967003
-0.00134674
-0.00928193
-0.00337205
-0.00841912
-0.00531141
-0.00707745
-0.00689267
-0.00534222
-0.00778534
-0.00342473
-0.00766917
-0.00166126
-0.00637257
-0.000431461
-0.00404777
-0.00125868
-0.000343738
0.00181817
-0.00112726
0.00434267
-0.002167
0.00594272
-0.00333742
0.00682759
-0.00455678
0.00717049
-0.00577168
0.00708459
-0.00694317
0.00662525
-0.0080357
0.00580608
-0.00900858
0.00461971
-0.00980949
0.00305798
-0.0103699
0.00113099
-0.0106037
-0.0011129
-0.0104128
-0.00356295
-0.00970152
-0.00602269
-0.00841011
-0.00818409
-0.00656902
-0.00962642
-0.00436772
-0.00987047
-0.00219876
-0.00854154
-0.000594991
-0.00565154
-0.00185367
-0.000340325
0.0021585
-0.00111686
0.00511921
-0.00214491
0.00697077
-0.00329749
0.00798017
-0.00449511
0.00836811
-0.00569082
0.00828031
-0.00685567
0.00779009
-0.00796639
0.00691681
-0.00899544
0.00564876
-0.00990235
0.00396489
-0.0106262
0.00185479
-0.0110788
-0.000660218
-0.0111467
-0.00349506
-0.0106947
-0.00647469
-0.00959719
-0.00928162
-0.0077991
-0.0114245
-0.00541787
-0.0122517
-0.00285658
-0.0111028
-0.000813649
-0.00769447
-0.00266732
-0.000327663
0.00248616
-0.00107156
0.00586311
-0.0020474
0.0079466
-0.00312789
0.00906066
-0.00423773
0.00947796
-0.00533864
0.00938122
-0.00641417
0.00886562
-0.00745682
0.00795946
-0.00845726
0.0066492
-0.00939453
0.00490217
-0.0102267
0.00268693
-0.0108748
-1.20928e-05
-0.0112315
-0.00313835
-0.0111326
-0.0065736
-0.0103897
-0.0100246
-0.00884015
-0.012974
-0.00647115
-0.0146207
-0.00361384
-0.0139601
-0.00109806
-0.0102102
-0.00376538
-0.000315074
0.00280123
-0.0010112
0.00655923
-0.00189933
0.00883474
-0.00285177
0.0100131
-0.00380047
0.0104267
-0.00471926
0.0103
-0.00560727
0.00975363
-0.00647566
0.00882785
-0.00733706
0.0075106
-0.00819589
0.005761
-0.00903735
0.00352838
-0.00981935
0.000769913
-0.0104395
-0.0025182
-0.0107424
-0.00627075
-0.0104961
-0.0102708
-0.00942931
-0.0140408
-0.00735017
-0.0166998
-0.00440733
-0.016903
-0.00145365
-0.0131639
-0.00521903
-0.000320292
0.00312153
-0.00097242
0.00721136
-0.0017477
0.00961002
-0.00251778
0.0107832
-0.0032283
0.0111372
-0.00387162
0.0109433
-0.00446687
0.0103489
-0.00504647
0.00940745
-0.00564688
0.00811101
-0.00630057
0.00641469
-0.00702671
0.00425452
-0.0078187
0.00156191
-0.00862079
-0.0017161
-0.00930492
-0.00558661
-0.00963664
-0.00993912
-0.00926635
-0.0144111
-0.00780737
-0.0181588
-0.00511452
-0.0195958
-0.00187238
-0.0164061
-0.00709141
-0.000374273
0.0034958
-0.00101383
0.00785091
-0.00166348
0.0102597
-0.0021978
0.0113175
-0.00258952
0.0115289
-0.00286081
0.0112146
-0.00305729
0.0105454
-0.003235
0.00958516
-0.00345375
0.00832976
-0.00377232
0.00673327
-0.00424266
0.00472486
-0.00489997
0.00221922
-0.00574355
-0.000872526
-0.00670577
-0.00462439
-0.00760046
-0.00904443
-0.00806299
-0.0139486
-0.00754758
-0.0186742
-0.00554269
-0.0216007
-0.00231878
-0.01963
-0.0094102
-0.000529691
0.00402549
-0.00121944
0.00854067
-0.00173358
0.0107738
-0.00196702
0.0115509
-0.00194567
0.0115075
-0.0017394
0.0110084
-0.00142912
0.0102351
-0.00109657
0.00925261
-0.000822522
0.00805571
-0.000687041
0.00659779
-0.000768456
0.00480627
-0.00113936
0.00259012
-0.00185533
-0.000156553
-0.00292751
-0.00355222
-0.00426672
-0.00770521
-0.0055793
-0.012636
-0.00625639
-0.0179971
-0.00542644
-0.0224307
-0.0027093
-0.0223471
-0.0121195
-0.000868984
0.00489448
-0.00168492
0.00935661
-0.00201491
0.0111038
-0.00182942
0.0113654
-0.00125514
0.0109333
-0.000435136
0.0101884
0.000504875
0.00929506
0.00145732
0.00830016
0.00232499
0.00718805
0.003014
0.00590878
0.0034287
0.00439157
0.00346954
0.00254928
0.00303487
0.000278108
0.00203705
-0.00255439
0.000442049
-0.00611022
-0.00161167
-0.0105823
-0.00360218
-0.0160066
-0.00441604
-0.0216168
-0.00288105
-0.0238821
-0.0150005
-0.00149494
0.00638942
-0.00241188
0.0102735
-0.0023322
0.0110241
-0.00145292
0.0104862
-7.8575e-05
0.00955891
0.00155039
0.00855939
0.0032635
0.00758195
0.00493623
0.00662743
0.00646681
0.00565747
0.0077597
0.00461588
0.00871476
0.00343651
0.00921989
0.00204415
0.00914487
0.000353129
0.00834756
-0.00175708
0.00668174
-0.0044444
0.00408728
-0.0079878
0.000839691
-0.012759
-0.00200582
-0.0187713
-0.00250315
-0.0233848
-0.0175037
-0.00234108
0.0087305
-0.00282025
0.0107527
-0.00158617
0.00979005
0.000572578
0.00832741
0.0031195
0.007012
0.0057557
0.00592318
0.00831494
0.00502271
0.0106962
0.00424619
0.0128234
0.00353028
0.0146225
0.00281677
0.0160082
0.00205077
0.0168748
0.0011776
0.017086
0.000141951
0.0164794
-0.00115051
0.0148406
-0.00280565
0.0119344
-0.0050816
0.00764906
-0.00847366
0.00261152
-0.0137337
-0.000908741
-0.0198645
-0.0184124
-0.00200258
0.0107331
0.00035767
0.00839246
0.0043188
0.00582892
0.00833334
0.00431287
0.0120909
0.00325448
0.0154928
0.00252128
0.0185165
0.00199898
0.0211627
0.00159996
0.0234262
0.00126676
0.0252834
0.000959649
0.0266858
0.000648304
0.0275549
0.000308559
0.0277811
-8.42535e-05
0.0272123
-0.000581721
0.0256268
-0.0012202
0.0226953
-0.00215003
0.0179508
-0.00372916
0.0109498
-0.00673276
0.00302452
-0.0119392
-0.0153879
0.0107331
0.0191255
0.0249545
0.0292673
0.0325218
0.0350431
0.0370421
0.038642
0.0399088
0.0408684
0.0415167
0.0418253
0.041741
0.0411593
0.0399391
0.0377891
0.0340599
0.0273272
0.0153879
)
;

boundaryField
{
    movingWall
    {
        type            calculated;
        value           uniform 0;
    }
    fixedWalls
    {
        type            calculated;
        value           uniform 0;
    }
    frontAndBack
    {
        type            empty;
    }
}


// ************************************************************************* //
