/*--------------------------------*- C++ -*----------------------------------*\
  =========                 |
  \\      /  F ield         | OpenFOAM: The Open Source CFD Toolbox
   \\    /   O peration     | Website:  https://openfoam.org
    \\  /    A nd           | Version:  13
     \\/     M anipulation  |
\*---------------------------------------------------------------------------*/
FoamFile
{
    format      ascii;
    class       surfaceScalarField;
    location    "18";
    object      phi_0;
}
// * * * * * * * * * * * * * * * * * * * * * * * * * * * * * * * * * * * * * //

dimensions      [0 3 -1 0 0 0 0];

internalField   nonuniform List<scalar> 
760
(
4.37761e-06
-4.39239e-06
-3.89759e-05
4.33535e-05
-0.000131118
9.21417e-05
-0.000256488
0.000125371
-0.000399319
0.000142831
-0.00054616
0.000146841
-0.00068508
0.00013892
-0.00080432
0.00011924
-0.000891728
8.74087e-05
-0.000935465
4.37369e-05
-0.000925831
-9.63438e-06
-0.000858209
-6.76221e-05
-0.000735653
-0.000122556
-0.000570901
-0.000164751
-0.000386159
-0.000184742
-0.000210053
-0.000176106
-7.16789e-05
-0.000138374
7.493e-06
-7.91719e-05
2.3576e-05
-1.60831e-05
2.35759e-05
-4.70614e-05
4.26689e-05
-0.000209907
0.000206199
-0.000473558
0.000355792
-0.000805611
0.000457424
-0.00117218
0.000509395
-0.0015418
0.000516471
-0.00188502
0.00048214
-0.00217298
0.000407198
-0.00237739
0.000291814
-0.00247255
0.000138903
-0.00243952
-4.26665e-05
-0.00227072
-0.000236426
-0.00197557
-0.000417707
-0.00158299
-0.000557328
-0.00114074
-0.000626995
-0.000709334
-0.00060751
-0.000350367
-0.000497342
-0.00011062
-0.000318919
-5.68807e-06
-0.000121015
1.78878e-05
-0.000111391
0.00015406
-0.000405094
0.000499902
-0.000834279
0.000784977
-0.00134961
0.000972757
-0.00190423
0.00106401
-0.00245469
0.00106693
-0.00295974
0.000987184
-0.00337911
0.000826578
-0.00367417
0.000586875
-0.00381075
0.000275482
-0.00376411
-8.93128e-05
-0.0035248
-0.000475736
-0.00310466
-0.000837849
-0.00254059
-0.0011214
-0.00189447
-0.00127311
-0.0012469
-0.00125509
-0.000683301
-0.00106094
-0.00027383
-0.000728389
-5.21106e-05
-0.000342735
-3.42228e-05
-0.000173068
0.000327129
-0.000593349
0.000920183
-0.00117876
0.00137039
-0.00186102
0.00165502
-0.00258192
0.00178491
-0.00328972
0.00177473
-0.00393582
0.00163329
-0.00447303
0.00136379
-0.00485601
0.000969853
-0.00504427
0.000463741
-0.00500715
-0.000126432
-0.00473
-0.000752887
-0.00422118
-0.00134667
-0.00351779
-0.00182479
-0.00268845
-0.00210245
-0.00182949
-0.00211405
-0.0010513
-0.00183912
-0.000454458
-0.00132524
-0.00010194
-0.000695253
-0.000136163
-0.000228158
0.000555287
-0.00076323
0.00145525
-0.0014903
0.00209746
-0.00232278
0.0024875
-0.00319275
0.00265488
-0.00404298
0.00262496
-0.00482107
0.00241138
-0.00547619
0.00201891
-0.00595871
0.00145237
-0.00622235
0.000727379
-0.00622863
-0.000120149
-0.00595284
-0.00102868
-0.00539271
-0.00190681
-0.00457721
-0.00264028
-0.00357456
-0.0031051
-0.00249404
-0.00319457
-0.00147531
-0.00285786
-0.000660766
-0.00213978
-0.000156554
-0.00119946
-0.000292718
-0.000274619
0.000829906
-0.00090768
0.00208831
-0.00175664
0.00294641
-0.00271935
0.00345022
-0.00372045
0.00365598
-0.00469992
0.00360443
-0.00560453
0.00331599
-0.00638267
0.00279705
-0.00698238
0.00205209
-0.00735186
0.00109685
-0.00744299
-2.90192e-05
-0.00721595
-0.00125572
-0.00665059
-0.00247217
-0.00575823
-0.00353264
-0.00459719
-0.00426613
-0.003284
-0.00450776
-0.00199032
-0.00415154
-0.000913849
-0.00321624
-0.000223191
-0.00189012
-0.000515909
-0.000310534
0.00114044
-0.00102033
0.00279811
-0.00196589
0.00389198
-0.00303336
0.00451769
-0.00414266
0.00476528
-0.00523359
0.00469536
-0.00625495
0.00433734
-0.00715723
0.00369934
-0.0078885
0.00278336
-0.00839287
0.00160122
-0.00861112
0.000189227
-0.00848706
-0.00137978
-0.00797528
-0.00298395
-0.00705934
-0.00444858
-0.00577448
-0.00555099
-0.00423214
-0.0060501
-0.00263201
-0.00575167
-0.00123915
-0.0046091
-0.000311311
-0.00281796
-0.00082722
-0.00033399
0.00147443
-0.00109502
0.00355914
-0.00210602
0.00490298
-0.00324548
0.00565715
-0.00443132
0.00595112
-0.00560565
0.00586968
-0.00672205
0.00545375
-0.00773626
0.00471355
-0.00859973
0.00364683
-0.00925558
0.00225707
-0.00963698
0.000570627
-0.00967002
-0.00134674
-0.00928192
-0.00337204
-0.00841911
-0.00531139
-0.00707744
-0.00689266
-0.00534222
-0.00778532
-0.00342473
-0.00766916
-0.00166126
-0.00637256
-0.000431461
-0.00404776
-0.00125868
-0.000343737
0.00181817
-0.00112726
0.00434266
-0.00216699
0.00594271
-0.00333741
0.00682757
-0.00455677
0.00717048
-0.00577167
0.00708458
-0.00694316
0.00662524
-0.00803569
0.00580608
-0.00900857
0.00461971
-0.00980948
0.00305798
-0.0103698
0.001131
-0.0106037
-0.00111289
-0.0104128
-0.00356294
-0.00970151
-0.00602268
-0.0084101
-0.00818408
-0.00656901
-0.00962641
-0.00436772
-0.00987045
-0.00219876
-0.00854153
-0.00059499
-0.00565153
-0.00185367
-0.000340325
0.00215849
-0.00111686
0.0051192
-0.00214491
0.00697076
-0.00329748
0.00798015
-0.0044951
0.0083681
-0.00569082
0.00828029
-0.00685566
0.00779008
-0.00796638
0.0069168
-0.00899543
0.00564876
-0.00990235
0.00396489
-0.0106261
0.0018548
-0.0110788
-0.000660211
-0.0111467
-0.00349505
-0.0106947
-0.00647467
-0.00959719
-0.00928161
-0.0077991
-0.0114245
-0.00541786
-0.0122517
-0.00285658
-0.0111028
-0.000813649
-0.00769446
-0.00266732
-0.000327663
0.00248616
-0.00107156
0.0058631
-0.0020474
0.00794659
-0.00312789
0.00906064
-0.00423773
0.00947794
-0.00533864
0.0093812
-0.00641417
0.00886561
-0.00745682
0.00795945
-0.00845726
0.0066492
-0.00939453
0.00490217
-0.0102267
0.00268693
-0.0108748
-1.20864e-05
-0.0112315
-0.00313834
-0.0111326
-0.00657359
-0.0103897
-0.0100245
-0.00884015
-0.012974
-0.00647115
-0.0146207
-0.00361383
-0.0139601
-0.00109806
-0.0102102
-0.00376538
-0.000315075
0.00280123
-0.0010112
0.00655922
-0.00189934
0.00883473
-0.00285177
0.0100131
-0.00380047
0.0104266
-0.00471926
0.0103
-0.00560727
0.00975362
-0.00647567
0.00882784
-0.00733706
0.00751059
-0.0081959
0.005761
-0.00903735
0.00352839
-0.00981936
0.000769919
-0.0104395
-0.00251819
-0.0107424
-0.00627074
-0.0104961
-0.0102708
-0.00942931
-0.0140408
-0.00735017
-0.0166998
-0.00440733
-0.016903
-0.00145365
-0.0131639
-0.00521903
-0.000320292
0.00312152
-0.000972422
0.00721135
-0.00174771
0.00961001
-0.00251779
0.0107832
-0.0032283
0.0111372
-0.00387163
0.0109433
-0.00446688
0.0103489
-0.00504648
0.00940744
-0.00564689
0.00811101
-0.00630058
0.00641469
-0.00702672
0.00425452
-0.00781871
0.00156191
-0.0086208
-0.0017161
-0.00930493
-0.0055866
-0.00963665
-0.00993911
-0.00926636
-0.0144111
-0.00780737
-0.0181588
-0.00511452
-0.0195958
-0.00187238
-0.0164061
-0.00709141
-0.000374274
0.0034958
-0.00101383
0.00785091
-0.00166349
0.0102597
-0.0021978
0.0113175
-0.00258952
0.0115289
-0.00286082
0.0112146
-0.0030573
0.0105453
-0.00323501
0.00958516
-0.00345376
0.00832976
-0.00377234
0.00673327
-0.00424268
0.00472486
-0.00489999
0.00221922
-0.00574356
-0.000872519
-0.00670578
-0.00462439
-0.00760047
-0.00904442
-0.00806299
-0.0139485
-0.00754758
-0.0186742
-0.0055427
-0.0216007
-0.00231878
-0.01963
-0.00941019
-0.000529693
0.00402549
-0.00121945
0.00854066
-0.00173359
0.0107738
-0.00196703
0.0115509
-0.00194568
0.0115075
-0.00173941
0.0110083
-0.00142913
0.0102351
-0.00109658
0.0092526
-0.000822537
0.00805571
-0.000687056
0.00659779
-0.000768471
0.00480628
-0.00113937
0.00259012
-0.00185534
-0.000156547
-0.00292752
-0.00355221
-0.00426673
-0.00770521
-0.0055793
-0.012636
-0.00625639
-0.0179971
-0.00542644
-0.0224307
-0.0027093
-0.0223471
-0.0121195
-0.000868986
0.00489447
-0.00168493
0.0093566
-0.00201491
0.0111038
-0.00182943
0.0113654
-0.00125515
0.0109332
-0.00043515
0.0101883
0.000504859
0.00929506
0.00145731
0.00830015
0.00232498
0.00718805
0.00301399
0.00590878
0.00342869
0.00439157
0.00346952
0.00254929
0.00303486
0.000278114
0.00203704
-0.00255438
0.00044204
-0.00611021
-0.00161168
-0.0105823
-0.00360218
-0.0160066
-0.00441605
-0.0216168
-0.00288105
-0.0238821
-0.0150005
-0.00149494
0.00638942
-0.00241188
0.0102735
-0.00233221
0.0110241
-0.00145293
0.0104862
-7.85864e-05
0.00955891
0.00155038
0.00855938
0.00326348
0.00758195
0.00493621
0.00662742
0.00646679
0.00565747
0.00775969
0.00461588
0.00871475
0.00343651
0.00921988
0.00204416
0.00914486
0.000353133
0.00834756
-0.00175708
0.00668173
-0.00444439
0.00408728
-0.0079878
0.000839686
-0.012759
-0.00200582
-0.0187713
-0.00250316
-0.0233848
-0.0175037
-0.00234108
0.0087305
-0.00282025
0.0107527
-0.00158618
0.00979005
0.000572571
0.00832741
0.00311949
0.00701199
0.00575569
0.00592318
0.00831493
0.00502271
0.0106962
0.00424619
0.0128234
0.00353028
0.0146225
0.00281677
0.0160082
0.00205077
0.0168748
0.0011776
0.0170859
0.000141953
0.0164794
-0.00115051
0.0148406
-0.00280565
0.0119344
-0.00508159
0.00764905
-0.00847366
0.00261152
-0.0137337
-0.000908742
-0.0198645
-0.0184124
-0.00200258
0.0107331
0.00035767
0.00839246
0.0043188
0.00582892
0.00833334
0.00431287
0.0120909
0.00325448
0.0154928
0.00252128
0.0185165
0.00199898
0.0211627
0.00159996
0.0234262
0.00126676
0.0252833
0.000959649
0.0266858
0.000648304
0.0275549
0.000308559
0.0277811
-8.42527e-05
0.0272123
-0.00058172
0.0256268
-0.0012202
0.0226953
-0.00215003
0.0179508
-0.00372916
0.0109498
-0.00673276
0.00302452
-0.0119392
-0.0153879
0.0107331
0.0191255
0.0249545
0.0292673
0.0325218
0.0350431
0.0370421
0.038642
0.0399088
0.0408684
0.0415167
0.0418253
0.041741
0.0411593
0.0399391
0.0377891
0.0340599
0.0273272
0.0153879
)
;

boundaryField
{
    movingWall
    {
        type            calculated;
        value           uniform 0;
    }
    fixedWalls
    {
        type            calculated;
        value           uniform 0;
    }
    frontAndBack
    {
        type            empty;
    }
}


// ************************************************************************* //
