/*--------------------------------*- C++ -*----------------------------------*\
  =========                 |
  \\      /  F ield         | OpenFOAM: The Open Source CFD Toolbox
   \\    /   O peration     | Website:  https://openfoam.org
    \\  /    A nd           | Version:  13
     \\/     M anipulation  |
\*---------------------------------------------------------------------------*/
FoamFile
{
    format      ascii;
    class       volVectorField;
    location    "18";
    object      U;
}
// * * * * * * * * * * * * * * * * * * * * * * * * * * * * * * * * * * * * * //

dimensions      [0 1 -1 0 0 0 0];

internalField   nonuniform List<vector> 
400
(
(0.00021338 -0.000213931 0)
(-9.38943e-05 -1.48997e-05 0)
(-0.00151375 0.000202286 0)
(-0.00376158 0.000340455 0)
(-0.00651135 0.000413077 0)
(-0.0094678 0.000441282 0)
(-0.0123815 0.000435597 0)
(-0.0150195 0.000395525 0)
(-0.0171421 0.000314569 0)
(-0.0185031 0.000187177 0)
(-0.0188765 1.56991e-05 0)
(-0.0181067 -0.000186878 0)
(-0.0161676 -0.000388627 0)
(-0.0132137 -0.000547696 0)
(-0.0096015 -0.000619881 0)
(-0.00585938 -0.000572955 0)
(-0.00259544 -0.000400748 0)
(-0.000344644 -0.000134454 0)
(0.000585573 0.000143622 0)
(0.000320086 0.00030692 0)
(2.28636e-06 9.11346e-05 0)
(-0.00201706 0.00187257 0)
(-0.00641377 0.00366576 0)
(-0.0125431 0.00490446 0)
(-0.0196908 0.00555846 0)
(-0.0272024 0.00569798 0)
(-0.0344743 0.00537327 0)
(-0.0409271 0.0045919 0)
(-0.0459842 0.00334512 0)
(-0.0490904 0.00165263 0)
(-0.0497773 -0.00039376 0)
(-0.0477547 -0.00260391 0)
(-0.0430217 -0.00468488 0)
(-0.0359568 -0.00627986 0)
(-0.027342 -0.00704204 0)
(-0.0183012 -0.00673839 0)
(-0.0101219 -0.00535601 0)
(-0.00396729 -0.00317956 0)
(-0.000523 -0.000841043 0)
(0.000244662 0.000614311 0)
(-0.000277713 0.00167992 0)
(-0.00438804 0.00643278 0)
(-0.0118308 0.0106115 0)
(-0.0215302 0.0134356 0)
(-0.0324558 0.0148621 0)
(-0.0437178 0.0150083 0)
(-0.0544764 0.0139622 0)
(-0.0639181 0.0117476 0)
(-0.0712448 0.00837983 0)
(-0.0757083 0.00395538 0)
(-0.0766927 -0.00126435 0)
(-0.0738275 -0.00680294 0)
(-0.0671129 -0.0119775 0)
(-0.0570271 -0.0159749 0)
(-0.0445711 -0.0180103 0)
(-0.0312154 -0.0175474 0)
(-0.0187025 -0.0145358 0)
(-0.00869098 -0.00958694 0)
(-0.00231739 -0.00402877 0)
(8.94745e-05 6.7218e-05 0)
(-0.000531957 0.00454653 0)
(-0.00668284 0.0136196 0)
(-0.0170534 0.0208278 0)
(-0.0300642 0.0255054 0)
(-0.0443709 0.0277255 0)
(-0.0589094 0.0276968 0)
(-0.0726893 0.0255572 0)
(-0.0847552 0.0213547 0)
(-0.0941722 0.0151441 0)
(-0.100062 0.00712419 0)
(-0.101685 -0.00223903 0)
(-0.0985571 -0.0121413 0)
(-0.0905857 -0.0214442 0)
(-0.0782044 -0.0287902 0)
(-0.062469 -0.0328347 0)
(-0.0450656 -0.0325969 0)
(-0.0281504 -0.0278679 0)
(-0.0139593 -0.0195398 0)
(-0.00428122 -0.00969168 0)
(-3.66162e-05 -0.00145273 0)
(-0.000750233 0.00859318 0)
(-0.00874297 0.0232432 0)
(-0.0217776 0.0340378 0)
(-0.0377816 0.0407426 0)
(-0.0551183 0.0437181 0)
(-0.0725955 0.0433418 0)
(-0.089139 0.0398292 0)
(-0.103724 0.033259 0)
(-0.11534 0.023722 0)
(-0.123011 0.011508 0)
(-0.125865 -0.00272958 0)
(-0.123235 -0.0178732 0)
(-0.114812 -0.0323203 0)
(-0.100822 -0.0441066 0)
(-0.0822063 -0.0511862 0)
(-0.0607527 -0.0519128 0)
(-0.0390359 -0.0456713 0)
(-0.0200349 -0.0334647 0)
(-0.00647831 -0.0181229 0)
(-0.000142583 -0.00399527 0)
(-0.000929916 0.0136642 0)
(-0.0104838 0.0350156 0)
(-0.0258042 0.0499067 0)
(-0.0443921 0.0588031 0)
(-0.0643674 0.0625239 0)
(-0.0844573 0.0617071 0)
(-0.103562 0.0566834 0)
(-0.12065 0.0475648 0)
(-0.134686 0.0344539 0)
(-0.144624 0.0176831 0)
(-0.149444 -0.00197521 0)
(-0.14823 -0.0231484 0)
(-0.140332 -0.0438196 0)
(-0.125593 -0.0613782 0)
(-0.104641 -0.0729115 0)
(-0.0791887 -0.0757962 0)
(-0.0521785 -0.0686059 0)
(-0.027493 -0.0521191 0)
(-0.00917665 -0.0298606 0)
(-0.000263122 -0.00771283 0)
(-0.00106512 0.0195676 0)
(-0.0118308 0.0485552 0)
(-0.0289523 0.0679868 0)
(-0.0496005 0.0792425 0)
(-0.0717176 0.0837535 0)
(-0.0939991 0.0825117 0)
(-0.115375 0.0760047 0)
(-0.134866 0.0643775 0)
(-0.151469 0.0477057 0)
(-0.164107 0.0262878 0)
(-0.171613 0.000908199 0)
(-0.172801 -0.0269384 0)
(-0.166597 -0.0549096 0)
(-0.152287 -0.0797677 0)
(-0.129942 -0.0975913 0)
(-0.100922 -0.10441 0)
(-0.0683293 -0.0974011 0)
(-0.0369986 -0.0765222 0)
(-0.0127288 -0.0457594 0)
(-0.000442623 -0.0129342 0)
(-0.00114827 0.026072 0)
(-0.0127126 0.0633927 0)
(-0.0310472 0.0877143 0)
(-0.0530995 0.101485 0)
(-0.0767018 0.106877 0)
(-0.100565 0.105322 0)
(-0.123701 0.0975122 0)
(-0.14524 0.0836277 0)
(-0.164278 0.0636745 0)
(-0.179773 0.0378273 0)
(-0.190486 0.00674693 0)
(-0.194983 -0.0281288 0)
(-0.191739 -0.0642938 0)
(-0.179384 -0.0980025 0)
(-0.157174 -0.124279 0)
(-0.125722 -0.137458 0)
(-0.0878539 -0.13259 0)
(-0.0491411 -0.107833 0)
(-0.0175247 -0.0669952 0)
(-0.000736278 -0.0201923 0)
(-0.00117513 0.032911 0)
(-0.0130821 0.0789784 0)
(-0.031956 0.108407 0)
(-0.0546199 0.124796 0)
(-0.0788563 0.131156 0)
(-0.103431 0.129447 0)
(-0.127484 0.120615 0)
(-0.150317 0.104892 0)
(-0.171203 0.0821817 0)
(-0.189236 0.0524525 0)
(-0.203221 0.016099 0)
(-0.211601 -0.0256885 0)
(-0.212492 -0.0704939 0)
(-0.203852 -0.114319 0)
(-0.183933 -0.15127 0)
(-0.152148 -0.173809 0)
(-0.110364 -0.174088 0)
(-0.0642474 -0.147067 0)
(-0.0239666 -0.0949866 0)
(-0.00121994 -0.0302424 0)
(-0.00115239 0.0398052 0)
(-0.0129556 0.0947149 0)
(-0.0316557 0.129281 0)
(-0.0540267 0.148271 0)
(-0.0778473 0.15561 0)
(-0.101973 0.153866 0)
(-0.125714 0.144308 0)
(-0.148601 0.12725 0)
(-0.170172 0.102495 0)
(-0.189782 0.0697509 0)
(-0.206448 0.0290304 0)
(-0.218684 -0.0189245 0)
(-0.224469 -0.0720722 0)
(-0.221246 -0.126579 0)
(-0.206211 -0.176028 0)
(-0.177207 -0.211155 0)
(-0.134304 -0.220666 0)
(-0.0821087 -0.194619 0)
(-0.0324275 -0.131203 0)
(-0.00200702 -0.044077 0)
(-0.00110799 0.0465128 0)
(-0.0124659 0.110025 0)
(-0.0303234 0.149507 0)
(-0.0514443 0.170867 0)
(-0.0736359 0.179016 0)
(-0.0958851 0.177218 0)
(-0.117717 0.167138 0)
(-0.13895 0.149235 0)
(-0.159466 0.12324 0)
(-0.179006 0.0886037 0)
(-0.196983 0.0449075 0)
(-0.212217 -0.00769354 0)
(-0.22289 -0.0679716 0)
(-0.226268 -0.132611 0)
(-0.218686 -0.195369 0)
(-0.196288 -0.245889 0)
(-0.156596 -0.269442 0)
(-0.1016 -0.249597 0)
(-0.0431436 -0.176798 0)
(-0.00327106 -0.0629268 0)
(-0.0011063 0.0529141 0)
(-0.0119289 0.124467 0)
(-0.0284364 0.168299 0)
(-0.0473827 0.191462 0)
(-0.0666352 0.199963 0)
(-0.0853856 0.197852 0)
(-0.10344 0.187269 0)
(-0.12096 0.168886 0)
(-0.138232 0.142428 0)
(-0.155469 0.107138 0)
(-0.172616 0.0621732 0)
(-0.189172 0.00701899 0)
(-0.203759 -0.0580341 0)
(-0.213845 -0.130795 0)
(-0.215551 -0.206025 0)
(-0.203587 -0.2734 0)
(-0.172566 -0.315641 0)
(-0.120275 -0.309077 0)
(-0.0559872 -0.23199 0)
(-0.0052668 -0.08821 0)
(-0.00127437 0.0591458 0)
(-0.0119328 0.137884 0)
(-0.0268723 0.185028 0)
(-0.042831 0.208943 0)
(-0.0577986 0.216935 0)
(-0.0713211 0.21394 0)
(-0.083596 0.202631 0)
(-0.0951955 0.183947 0)
(-0.106849 0.157675 0)
(-0.119283 0.122933 0)
(-0.133054 0.0785385 0)
(-0.148366 0.0233453 0)
(-0.164687 -0.0432576 0)
(-0.180303 -0.120674 0)
(-0.19172 -0.205475 0)
(-0.193045 -0.288864 0)
(-0.17634 -0.352909 0)
(-0.13412 -0.367572 0)
(-0.0700795 -0.29519 0)
(-0.00832653 -0.121364 0)
(-0.00185048 0.0658075 0)
(-0.0134653 0.150587 0)
(-0.0269868 0.199311 0)
(-0.0392539 0.222248 0)
(-0.0485355 0.228369 0)
(-0.0550175 0.223583 0)
(-0.0594679 0.211095 0)
(-0.0629521 0.192105 0)
(-0.0666553 0.166496 0)
(-0.0717846 0.133349 0)
(-0.079475 0.091281 0)
(-0.0906541 0.0386939 0)
(-0.105763 -0.0259138 0)
(-0.124287 -0.103447 0)
(-0.143951 -0.192864 0)
(-0.159487 -0.288426 0)
(-0.16165 -0.37429 0)
(-0.137675 -0.417114 0)
(-0.0832665 -0.362048 0)
(-0.0127826 -0.163477 0)
(-0.00328752 0.0743225 0)
(-0.0180918 0.163556 0)
(-0.0305797 0.211039 0)
(-0.0383084 0.230321 0)
(-0.0402046 0.232621 0)
(-0.0375875 0.224832 0)
(-0.0320546 0.210558 0)
(-0.0252612 0.19115 0)
(-0.0188353 0.166545 0)
(-0.0143832 0.135821 0)
(-0.0134955 0.0975208 0)
(-0.0177073 0.0498231 0)
(-0.0283659 -0.00932223 0)
(-0.0462837 -0.0820087 0)
(-0.0710212 -0.169566 0)
(-0.0992753 -0.270353 0)
(-0.122617 -0.373656 0)
(-0.12439 -0.448073 0)
(-0.0915559 -0.424629 0)
(-0.0187137 -0.214569 0)
(-0.00636488 0.0873905 0)
(-0.0280217 0.178239 0)
(-0.0393032 0.219837 0)
(-0.0406126 0.231552 0)
(-0.0323719 0.227523 0)
(-0.017818 0.215384 0)
(0.000311058 0.19877 0)
(0.0196949 0.178913 0)
(0.0383194 0.155666 0)
(0.0543065 0.128082 0)
(0.0657829 0.0947166 0)
(0.0708134 0.0537467 0)
(0.0673638 0.00298375 0)
(0.0534758 -0.0602468 0)
(0.0276185 -0.138954 0)
(-0.0098096 -0.235611 0)
(-0.0537961 -0.347005 0)
(-0.0866354 -0.450305 0)
(-0.0885284 -0.470831 0)
(-0.0253081 -0.272251 0)
(-0.0125253 0.110609 0)
(-0.0452275 0.196698 0)
(-0.0514707 0.22452 0)
(-0.0409044 0.223094 0)
(-0.0170775 0.209805 0)
(0.0138799 0.19217 0)
(0.0479593 0.173088 0)
(0.0823194 0.15318 0)
(0.114786 0.131966 0)
(0.143449 0.108398 0)
(0.166399 0.0810937 0)
(0.181563 0.0483987 0)
(0.186519 0.00833921 0)
(0.178598 -0.0416762 0)
(0.154721 -0.105178 0)
(0.112431 -0.187475 0)
(0.0511786 -0.293345 0)
(-0.0143327 -0.414478 0)
(-0.0643423 -0.485111 0)
(-0.0295915 -0.330453 0)
(-0.0216113 0.14842 0)
(-0.0652322 0.21312 0)
(-0.0494043 0.21506 0)
(-0.0130517 0.195076 0)
(0.0358577 0.171597 0)
(0.0886955 0.149586 0)
(0.141228 0.129833 0)
(0.191013 0.111746 0)
(0.236415 0.0943045 0)
(0.276017 0.0763396 0)
(0.308275 0.0566137 0)
(0.33135 0.0337959 0)
(0.342803 0.00635914 0)
(0.339823 -0.0276505 0)
(0.318497 -0.0712263 0)
(0.274639 -0.130258 0)
(0.202157 -0.214984 0)
(0.107931 -0.334971 0)
(-0.00321137 -0.451459 0)
(-0.0232662 -0.378731 0)
(-0.0274715 0.229339 0)
(-0.036492 0.223122 0)
(0.0465591 0.17695 0)
(0.12704 0.138737 0)
(0.205587 0.109494 0)
(0.277466 0.0878689 0)
(0.341761 0.071572 0)
(0.398449 0.0585776 0)
(0.447583 0.047385 0)
(0.488921 0.0368469 0)
(0.521762 0.0260136 0)
(0.544894 0.0140278 0)
(0.556373 1.09049e-05 0)
(0.553869 -0.0170314 0)
(0.53335 -0.0390835 0)
(0.490579 -0.0704527 0)
(0.415315 -0.120932 0)
(0.3049 -0.213375 0)
(0.125878 -0.348318 0)
(0.0236672 -0.378789 0)
(0.214441 0.135798 0)
(0.285139 0.0984505 0)
(0.444658 0.0569157 0)
(0.547914 0.0365838 0)
(0.62166 0.0241685 0)
(0.678243 0.0163199 0)
(0.722813 0.0113353 0)
(0.7584 0.00800645 0)
(0.786839 0.00557325 0)
(0.809022 0.00357154 0)
(0.825135 0.00169468 0)
(0.834853 -0.000270607 0)
(0.837306 -0.00250607 0)
(0.831186 -0.00505058 0)
(0.813546 -0.00850203 0)
(0.781941 -0.0135055 0)
(0.724081 -0.0231769 0)
(0.635276 -0.0406018 0)
(0.43131 -0.091295 0)
(0.270899 -0.153523 0)
)
;

boundaryField
{
    movingWall
    {
        type            fixedValue;
        value           uniform (1 0 0);
    }
    fixedWalls
    {
        type            fixedValue;
        value           uniform (0 0 0);
    }
    frontAndBack
    {
        type            empty;
    }
}


// ************************************************************************* //
