/*--------------------------------*- C++ -*----------------------------------*\
  =========                 |
  \\      /  F ield         | OpenFOAM: The Open Source CFD Toolbox
   \\    /   O peration     | Website:  https://openfoam.org
    \\  /    A nd           | Version:  13
     \\/     M anipulation  |
\*---------------------------------------------------------------------------*/
FoamFile
{
    format      ascii;
    class       volVectorField;
    location    "18";
    object      U_0;
}
// * * * * * * * * * * * * * * * * * * * * * * * * * * * * * * * * * * * * * //

dimensions      [0 1 -1 0 0 0 0];

internalField   nonuniform List<vector> 
400
(
(0.000213378 -0.000213931 0)
(-9.38964e-05 -1.48997e-05 0)
(-0.00151375 0.000202285 0)
(-0.00376157 0.000340454 0)
(-0.00651134 0.000413076 0)
(-0.00946778 0.000441281 0)
(-0.0123815 0.000435596 0)
(-0.0150195 0.000395524 0)
(-0.017142 0.000314568 0)
(-0.0185031 0.000187177 0)
(-0.0188765 1.56993e-05 0)
(-0.0181066 -0.000186878 0)
(-0.0161676 -0.000388626 0)
(-0.0132137 -0.000547695 0)
(-0.00960149 -0.00061988 0)
(-0.00585938 -0.000572954 0)
(-0.00259544 -0.000400748 0)
(-0.000344646 -0.000134455 0)
(0.000585571 0.000143621 0)
(0.000320086 0.000306919 0)
(2.28588e-06 9.11339e-05 0)
(-0.00201706 0.00187257 0)
(-0.00641376 0.00366575 0)
(-0.0125431 0.00490444 0)
(-0.0196908 0.00555845 0)
(-0.0272023 0.00569796 0)
(-0.0344742 0.00537326 0)
(-0.040927 0.00459189 0)
(-0.0459841 0.00334511 0)
(-0.0490903 0.00165263 0)
(-0.0497772 -0.000393757 0)
(-0.0477546 -0.0026039 0)
(-0.0430216 -0.00468486 0)
(-0.0359568 -0.00627985 0)
(-0.027342 -0.00704203 0)
(-0.0183011 -0.00673837 0)
(-0.0101219 -0.005356 0)
(-0.00396728 -0.00317955 0)
(-0.000523001 -0.000841046 0)
(0.000244662 0.000614307 0)
(-0.000277713 0.00167991 0)
(-0.00438803 0.00643276 0)
(-0.0118308 0.0106115 0)
(-0.0215302 0.0134356 0)
(-0.0324557 0.014862 0)
(-0.0437177 0.0150083 0)
(-0.0544762 0.0139622 0)
(-0.0639179 0.0117476 0)
(-0.0712446 0.00837981 0)
(-0.0757081 0.00395537 0)
(-0.0766925 -0.00126434 0)
(-0.0738273 -0.00680292 0)
(-0.0671127 -0.0119774 0)
(-0.057027 -0.0159749 0)
(-0.044571 -0.0180102 0)
(-0.0312154 -0.0175473 0)
(-0.0187025 -0.0145358 0)
(-0.00869097 -0.00958693 0)
(-0.00231739 -0.00402878 0)
(8.94738e-05 6.72113e-05 0)
(-0.000531956 0.00454652 0)
(-0.00668282 0.0136195 0)
(-0.0170533 0.0208277 0)
(-0.0300641 0.0255053 0)
(-0.0443708 0.0277254 0)
(-0.0589092 0.0276967 0)
(-0.0726891 0.0255571 0)
(-0.084755 0.0213546 0)
(-0.094172 0.0151441 0)
(-0.100061 0.00712419 0)
(-0.101684 -0.00223901 0)
(-0.0985569 -0.0121412 0)
(-0.0905856 -0.0214441 0)
(-0.0782042 -0.0287901 0)
(-0.0624689 -0.0328346 0)
(-0.0450656 -0.0325969 0)
(-0.0281503 -0.0278678 0)
(-0.0139593 -0.0195398 0)
(-0.00428121 -0.00969167 0)
(-3.66168e-05 -0.00145273 0)
(-0.00075023 0.00859316 0)
(-0.00874294 0.0232431 0)
(-0.0217776 0.0340377 0)
(-0.0377815 0.0407425 0)
(-0.0551182 0.043718 0)
(-0.0725953 0.0433417 0)
(-0.0891387 0.0398291 0)
(-0.103724 0.0332589 0)
(-0.11534 0.023722 0)
(-0.123011 0.011508 0)
(-0.125864 -0.00272954 0)
(-0.123235 -0.0178731 0)
(-0.114812 -0.0323202 0)
(-0.100821 -0.0441065 0)
(-0.0822061 -0.0511861 0)
(-0.0607526 -0.0519127 0)
(-0.0390358 -0.0456712 0)
(-0.0200349 -0.0334646 0)
(-0.00647831 -0.0181229 0)
(-0.000142584 -0.00399527 0)
(-0.000929912 0.0136642 0)
(-0.0104838 0.0350155 0)
(-0.0258042 0.0499066 0)
(-0.0443919 0.058803 0)
(-0.0643672 0.0625237 0)
(-0.0844571 0.0617069 0)
(-0.103562 0.0566833 0)
(-0.120649 0.0475647 0)
(-0.134686 0.0344538 0)
(-0.144624 0.0176831 0)
(-0.149444 -0.00197516 0)
(-0.14823 -0.0231483 0)
(-0.140332 -0.0438195 0)
(-0.125593 -0.061378 0)
(-0.104641 -0.0729114 0)
(-0.0791886 -0.075796 0)
(-0.0521784 -0.0686058 0)
(-0.027493 -0.052119 0)
(-0.00917664 -0.0298606 0)
(-0.000263122 -0.00771283 0)
(-0.00106512 0.0195675 0)
(-0.0118308 0.048555 0)
(-0.0289522 0.0679866 0)
(-0.0496004 0.0792423 0)
(-0.0717174 0.0837533 0)
(-0.0939989 0.0825115 0)
(-0.115375 0.0760046 0)
(-0.134866 0.0643774 0)
(-0.151469 0.0477056 0)
(-0.164107 0.0262878 0)
(-0.171613 0.000908259 0)
(-0.172801 -0.0269383 0)
(-0.166597 -0.0549095 0)
(-0.152287 -0.0797675 0)
(-0.129942 -0.0975911 0)
(-0.100922 -0.104409 0)
(-0.0683292 -0.0974009 0)
(-0.0369986 -0.0765221 0)
(-0.0127288 -0.0457593 0)
(-0.000442622 -0.0129342 0)
(-0.00114827 0.0260719 0)
(-0.0127126 0.0633925 0)
(-0.0310471 0.0877141 0)
(-0.0530994 0.101485 0)
(-0.0767017 0.106876 0)
(-0.100565 0.105322 0)
(-0.123701 0.097512 0)
(-0.14524 0.0836276 0)
(-0.164278 0.0636744 0)
(-0.179773 0.0378273 0)
(-0.190485 0.006747 0)
(-0.194982 -0.0281286 0)
(-0.191739 -0.0642936 0)
(-0.179384 -0.0980022 0)
(-0.157174 -0.124278 0)
(-0.125722 -0.137458 0)
(-0.0878538 -0.132589 0)
(-0.049141 -0.107833 0)
(-0.0175246 -0.0669951 0)
(-0.000736276 -0.0201923 0)
(-0.00117513 0.0329109 0)
(-0.013082 0.0789782 0)
(-0.0319559 0.108406 0)
(-0.0546198 0.124796 0)
(-0.0788561 0.131156 0)
(-0.103431 0.129446 0)
(-0.127484 0.120615 0)
(-0.150317 0.104892 0)
(-0.171203 0.0821816 0)
(-0.189236 0.0524525 0)
(-0.203221 0.0160991 0)
(-0.211601 -0.0256883 0)
(-0.212492 -0.0704937 0)
(-0.203852 -0.114319 0)
(-0.183933 -0.15127 0)
(-0.152148 -0.173809 0)
(-0.110364 -0.174088 0)
(-0.0642473 -0.147067 0)
(-0.0239666 -0.0949865 0)
(-0.00121994 -0.0302424 0)
(-0.00115239 0.0398051 0)
(-0.0129556 0.0947147 0)
(-0.0316557 0.129281 0)
(-0.0540266 0.148271 0)
(-0.0778472 0.15561 0)
(-0.101973 0.153866 0)
(-0.125713 0.144308 0)
(-0.148601 0.12725 0)
(-0.170172 0.102495 0)
(-0.189782 0.0697509 0)
(-0.206447 0.0290305 0)
(-0.218684 -0.0189243 0)
(-0.224469 -0.072072 0)
(-0.221246 -0.126579 0)
(-0.206211 -0.176028 0)
(-0.177207 -0.211154 0)
(-0.134304 -0.220666 0)
(-0.0821087 -0.194619 0)
(-0.0324275 -0.131203 0)
(-0.00200702 -0.044077 0)
(-0.00110799 0.0465127 0)
(-0.0124659 0.110025 0)
(-0.0303234 0.149507 0)
(-0.0514443 0.170867 0)
(-0.0736359 0.179016 0)
(-0.0958851 0.177218 0)
(-0.117717 0.167138 0)
(-0.13895 0.149235 0)
(-0.159466 0.12324 0)
(-0.179006 0.0886037 0)
(-0.196983 0.0449076 0)
(-0.212217 -0.00769339 0)
(-0.22289 -0.0679714 0)
(-0.226268 -0.132611 0)
(-0.218686 -0.195369 0)
(-0.196288 -0.245888 0)
(-0.156596 -0.269441 0)
(-0.1016 -0.249597 0)
(-0.0431436 -0.176798 0)
(-0.00327106 -0.0629268 0)
(-0.00110631 0.052914 0)
(-0.0119289 0.124466 0)
(-0.0284364 0.168299 0)
(-0.0473827 0.191462 0)
(-0.0666353 0.199963 0)
(-0.0853856 0.197851 0)
(-0.10344 0.187269 0)
(-0.12096 0.168886 0)
(-0.138233 0.142428 0)
(-0.155469 0.107138 0)
(-0.172616 0.0621732 0)
(-0.189172 0.00701913 0)
(-0.203759 -0.0580339 0)
(-0.213845 -0.130795 0)
(-0.215551 -0.206025 0)
(-0.203587 -0.273399 0)
(-0.172566 -0.315641 0)
(-0.120275 -0.309077 0)
(-0.0559872 -0.23199 0)
(-0.0052668 -0.0882099 0)
(-0.00127437 0.0591458 0)
(-0.0119328 0.137884 0)
(-0.0268724 0.185028 0)
(-0.0428311 0.208943 0)
(-0.0577987 0.216935 0)
(-0.0713213 0.213939 0)
(-0.0835961 0.202631 0)
(-0.0951956 0.183947 0)
(-0.10685 0.157675 0)
(-0.119283 0.122933 0)
(-0.133055 0.0785386 0)
(-0.148366 0.0233455 0)
(-0.164687 -0.0432574 0)
(-0.180304 -0.120674 0)
(-0.19172 -0.205474 0)
(-0.193045 -0.288863 0)
(-0.17634 -0.352908 0)
(-0.13412 -0.367572 0)
(-0.0700795 -0.29519 0)
(-0.00832653 -0.121364 0)
(-0.00185048 0.0658074 0)
(-0.0134654 0.150587 0)
(-0.0269869 0.199311 0)
(-0.039254 0.222248 0)
(-0.0485357 0.228368 0)
(-0.0550177 0.223582 0)
(-0.0594681 0.211094 0)
(-0.0629523 0.192105 0)
(-0.0666556 0.166496 0)
(-0.0717849 0.133349 0)
(-0.0794753 0.0912811 0)
(-0.0906544 0.038694 0)
(-0.105764 -0.0259136 0)
(-0.124287 -0.103447 0)
(-0.143951 -0.192864 0)
(-0.159487 -0.288425 0)
(-0.161651 -0.37429 0)
(-0.137675 -0.417114 0)
(-0.0832665 -0.362048 0)
(-0.0127826 -0.163477 0)
(-0.00328752 0.0743225 0)
(-0.0180919 0.163556 0)
(-0.0305798 0.211039 0)
(-0.0383085 0.230321 0)
(-0.0402048 0.232621 0)
(-0.0375878 0.224832 0)
(-0.0320549 0.210558 0)
(-0.0252615 0.19115 0)
(-0.0188356 0.166545 0)
(-0.0143835 0.135821 0)
(-0.0134958 0.0975209 0)
(-0.0177076 0.0498233 0)
(-0.0283662 -0.0093221 0)
(-0.0462839 -0.0820085 0)
(-0.0710215 -0.169566 0)
(-0.0992754 -0.270353 0)
(-0.122617 -0.373656 0)
(-0.12439 -0.448073 0)
(-0.0915559 -0.424629 0)
(-0.0187137 -0.214569 0)
(-0.00636488 0.0873904 0)
(-0.0280218 0.178239 0)
(-0.0393033 0.219837 0)
(-0.0406127 0.231552 0)
(-0.0323721 0.227523 0)
(-0.0178183 0.215384 0)
(0.000310763 0.19877 0)
(0.0196946 0.178913 0)
(0.038319 0.155666 0)
(0.0543062 0.128082 0)
(0.0657826 0.0947167 0)
(0.0708131 0.0537468 0)
(0.0673635 0.00298387 0)
(0.0534756 -0.0602467 0)
(0.0276182 -0.138953 0)
(-0.00980978 -0.235611 0)
(-0.0537962 -0.347005 0)
(-0.0866355 -0.450305 0)
(-0.0885284 -0.470831 0)
(-0.0253081 -0.272251 0)
(-0.0125253 0.110609 0)
(-0.0452275 0.196698 0)
(-0.0514708 0.22452 0)
(-0.0409045 0.223094 0)
(-0.0170777 0.209805 0)
(0.0138796 0.19217 0)
(0.047959 0.173088 0)
(0.0823191 0.15318 0)
(0.114785 0.131966 0)
(0.143449 0.108398 0)
(0.166399 0.0810938 0)
(0.181563 0.0483988 0)
(0.186519 0.0083393 0)
(0.178598 -0.0416762 0)
(0.154721 -0.105178 0)
(0.112431 -0.187475 0)
(0.0511785 -0.293345 0)
(-0.0143328 -0.414478 0)
(-0.0643423 -0.485111 0)
(-0.0295915 -0.330453 0)
(-0.0216113 0.14842 0)
(-0.0652322 0.21312 0)
(-0.0494044 0.21506 0)
(-0.0130518 0.195076 0)
(0.0358576 0.171597 0)
(0.0886953 0.149586 0)
(0.141228 0.129833 0)
(0.191012 0.111746 0)
(0.236414 0.0943045 0)
(0.276016 0.0763396 0)
(0.308275 0.0566137 0)
(0.33135 0.0337959 0)
(0.342803 0.0063592 0)
(0.339823 -0.0276504 0)
(0.318497 -0.0712263 0)
(0.274639 -0.130258 0)
(0.202157 -0.214984 0)
(0.107931 -0.334971 0)
(-0.0032114 -0.451459 0)
(-0.0232662 -0.378731 0)
(-0.0274715 0.229339 0)
(-0.036492 0.223122 0)
(0.0465591 0.17695 0)
(0.12704 0.138737 0)
(0.205587 0.109494 0)
(0.277466 0.0878689 0)
(0.341761 0.0715719 0)
(0.398449 0.0585776 0)
(0.447583 0.047385 0)
(0.48892 0.0368469 0)
(0.521762 0.0260136 0)
(0.544894 0.0140278 0)
(0.556373 1.09321e-05 0)
(0.553869 -0.0170314 0)
(0.53335 -0.0390835 0)
(0.490579 -0.0704527 0)
(0.415315 -0.120932 0)
(0.3049 -0.213375 0)
(0.125878 -0.348318 0)
(0.0236672 -0.378789 0)
(0.214441 0.135798 0)
(0.285139 0.0984505 0)
(0.444658 0.0569157 0)
(0.547914 0.0365838 0)
(0.62166 0.0241685 0)
(0.678243 0.0163199 0)
(0.722813 0.0113353 0)
(0.7584 0.00800645 0)
(0.786839 0.00557325 0)
(0.809022 0.00357154 0)
(0.825135 0.00169468 0)
(0.834853 -0.000270603 0)
(0.837306 -0.00250606 0)
(0.831186 -0.00505057 0)
(0.813546 -0.00850203 0)
(0.781941 -0.0135055 0)
(0.724081 -0.0231769 0)
(0.635276 -0.0406018 0)
(0.43131 -0.091295 0)
(0.270899 -0.153523 0)
)
;

boundaryField
{
    movingWall
    {
        type            calculated;
        value           uniform (1 0 0);
    }
    fixedWalls
    {
        type            calculated;
        value           uniform (0 0 0);
    }
    frontAndBack
    {
        type            empty;
    }
}


// ************************************************************************* //
