/*--------------------------------*- C++ -*----------------------------------*\
  =========                 |
  \\      /  F ield         | OpenFOAM: The Open Source CFD Toolbox
   \\    /   O peration     | Website:  https://openfoam.org
    \\  /    A nd           | Version:  13
     \\/     M anipulation  |
\*---------------------------------------------------------------------------*/
FoamFile
{
    format      ascii;
    class       volScalarField;
    location    "31";
    object      p;
}
// * * * * * * * * * * * * * * * * * * * * * * * * * * * * * * * * * * * * * //

dimensions      [0 2 -2 0 0 0 0];

internalField   nonuniform List<scalar> 
400
(
3.16955e-07
-0.000572181
-0.00121579
-0.00171868
-0.00195899
-0.00188444
-0.00147024
-0.000705308
0.000401509
0.00180617
0.00341491
0.00507523
0.00659126
0.00775132
0.00838003
0.00839587
0.00785559
0.00696915
0.00604826
0.00549458
0.000570182
-2.00709e-05
-0.000569441
-0.000956834
-0.00113183
-0.00106177
-0.000725743
-0.000109009
0.000788992
0.00193966
0.00327001
0.00466035
0.00594092
0.00693003
0.00747447
0.00750202
0.00705946
0.00631909
0.00554351
0.00497288
0.00124591
0.000493191
-8.64775e-05
-0.00044113
-0.000605948
-0.000576098
-0.000337066
0.000132821
0.000849927
0.00180712
0.00295507
0.00419202
0.00536467
0.00629405
0.00681948
0.00685313
0.00642098
0.00566842
0.00480919
0.00403743
0.00174082
0.00076389
7.38795e-05
-0.000321702
-0.000536895
-0.000592531
-0.000478028
-0.000159937
0.000400264
0.00122233
0.00228193
0.00349311
0.00470195
0.00570997
0.00631964
0.00639839
0.00593375
0.00505081
0.00394866
0.00284469
0.00179573
0.000595948
-0.000227492
-0.000704597
-0.0010179
-0.00120701
-0.00125915
-0.00112278
-0.000730261
-2.75762e-05
0.000992012
0.00226386
0.00363033
0.00486151
0.00569894
0.00593259
0.00548066
0.00443575
0.0030002
0.00146236
0.00119497
-0.000202764
-0.00116306
-0.00175247
-0.00221117
-0.00259042
-0.00286903
-0.00297097
-0.00279168
-0.00223266
-0.00124379
0.000150807
0.00179314
0.00342013
0.00469051
0.00527502
0.00497219
0.00380596
0.00197929
-0.000103769
-0.000241372
-0.00179981
-0.00289199
-0.00362197
-0.00427745
-0.00491637
-0.00550481
-0.00593728
-0.0060643
-0.00572817
-0.00480663
-0.00328488
-0.00127003
0.000946998
0.00292659
0.00417016
0.00427956
0.00313584
0.0009029
-0.00185597
-0.0026517
-0.00432607
-0.00554096
-0.006439
-0.00734684
-0.00832745
-0.00933359
-0.0102284
-0.010811
-0.0108502
-0.0101332
-0.00853869
-0.00610675
-0.00311194
-8.61193e-05
0.00225534
0.00321295
0.00239558
-0.000177073
-0.00375266
-0.0061211
-0.00786143
-0.00918443
-0.0102715
-0.0114827
-0.012889
-0.0144341
-0.0159526
-0.0171893
-0.0178273
-0.017535
-0.0160424
-0.0132528
-0.00935719
-0.00493572
-0.000941109
0.00150838
0.00155488
-0.00113685
-0.0056465
-0.0106712
-0.0124234
-0.0138272
-0.0151017
-0.0166419
-0.0185355
-0.0207268
-0.0230301
-0.0251401
-0.0266488
-0.0270838
-0.0259772
-0.0230339
-0.0182538
-0.0121674
-0.00592184
-0.00114199
0.000603318
-0.00173109
-0.00719485
-0.0162602
-0.017965
-0.0193954
-0.0208059
-0.0226412
-0.025023
-0.027911
-0.0311111
-0.0342771
-0.0369135
-0.038395
-0.0380064
-0.0352838
-0.0298332
-0.0220048
-0.0130061
-0.00495952
-0.000375276
-0.00151574
-0.00772038
-0.0228026
-0.0243897
-0.0257424
-0.0271481
-0.0291432
-0.0319103
-0.0354421
-0.039549
-0.0438545
-0.0477843
-0.0505796
-0.0513768
-0.0491631
-0.0433936
-0.0339886
-0.0219774
-0.00980563
-0.00102448
0.000280329
-0.00599972
-0.0302222
-0.0315859
-0.0326693
-0.0337917
-0.0356678
-0.0385796
-0.0425686
-0.0474547
-0.0528339
-0.0580623
-0.0622507
-0.0643102
-0.0630219
-0.0573317
-0.0466925
-0.0317046
-0.0148008
-0.00041679
0.00496588
2.30821e-05
-0.0385597
-0.0394891
-0.0399609
-0.0403266
-0.0416346
-0.0443092
-0.0484452
-0.053859
-0.0601055
-0.0664651
-0.0719291
-0.0752212
-0.07487
-0.0694211
-0.0578067
-0.0400018
-0.018023
0.00327982
0.0146989
0.013556
-0.0481744
-0.0481566
-0.0474031
-0.0462838
-0.0464117
-0.0483709
-0.0522812
-0.0579128
-0.064739
-0.071935
-0.0783603
-0.0825609
-0.0828319
-0.0773735
-0.0646449
-0.0439367
-0.0165432
0.0130191
0.0329314
0.039281
-0.0602346
-0.0579574
-0.0548669
-0.0512131
-0.0494269
-0.0501781
-0.05352
-0.0590934
-0.0662197
-0.0739184
-0.0808791
-0.0854531
-0.0857066
-0.0795196
-0.0649417
-0.040611
-0.00697859
0.0328171
0.064794
0.0836771
-0.0774811
-0.0694729
-0.0620871
-0.0545491
-0.0501387
-0.0493248
-0.0519042
-0.0572607
-0.0644859
-0.0723847
-0.0794397
-0.0837781
-0.0832182
-0.0752827
-0.0576211
-0.028211
0.0133527
0.0666613
0.115752
0.154807
-0.108925
-0.0850398
-0.0697731
-0.0563913
-0.0485408
-0.0458809
-0.047624
-0.0527147
-0.0599169
-0.0677767
-0.0745521
-0.0781398
-0.0761041
-0.0655423
-0.043643
-0.00744484
0.0447434
0.114933
0.188079
0.263281
-0.168693
-0.100746
-0.0730929
-0.0522879
-0.04131
-0.0376995
-0.0394418
-0.0448652
-0.0524155
-0.0604467
-0.0670737
-0.0700476
-0.0666872
-0.0537881
-0.0278896
0.0154101
0.0800718
0.17276
0.285855
0.445986
-0.402754
-0.139031
-0.0734589
-0.0447299
-0.0305716
-0.0266173
-0.0290853
-0.0353732
-0.0436538
-0.0522071
-0.0591237
-0.0621453
-0.0586172
-0.0452138
-0.0174506
0.0310789
0.108496
0.236657
0.427488
0.79368
)
;

boundaryField
{
    movingWall
    {
        type            zeroGradient;
    }
    fixedWalls
    {
        type            zeroGradient;
    }
    frontAndBack
    {
        type            empty;
    }
}


// ************************************************************************* //
