/*--------------------------------*- C++ -*----------------------------------*\
  =========                 |
  \\      /  F ield         | OpenFOAM: The Open Source CFD Toolbox
   \\    /   O peration     | Website:  https://openfoam.org
    \\  /    A nd           | Version:  13
     \\/     M anipulation  |
\*---------------------------------------------------------------------------*/
FoamFile
{
    format      ascii;
    class       volScalarField;
    location    "13";
    object      p;
}
// * * * * * * * * * * * * * * * * * * * * * * * * * * * * * * * * * * * * * //

dimensions      [0 2 -2 0 0 0 0];

internalField   nonuniform List<scalar> 
400
(
-7.17351e-07
-0.000570573
-0.0012092
-0.00170656
-0.00194153
-0.00186222
-0.00144421
-0.000676834
0.000430751
0.00183452
0.00344112
0.00509895
0.00661322
0.0077733
0.00840451
0.00842531
0.00789157
0.00701198
0.00609556
0.00554387
0.000564998
-2.1975e-05
-0.00056697
-0.000949482
-0.00111939
-0.00104435
-0.000703794
-8.34174e-05
0.000816923
0.00196845
0.00329839
0.0046877
0.00596755
0.0069572
0.00750409
0.00753602
0.00709906
0.00636432
0.0055927
0.00502401
0.00123473
0.000486722
-8.82602e-05
-0.000438087
-0.000597548
-0.000561939
-0.00031716
0.000157899
0.000879021
0.00183868
0.00298756
0.0042244
0.00539675
0.00632667
0.00685425
0.00689183
0.00646483
0.00571758
0.00486251
0.00409324
0.00172412
0.000753438
6.89144e-05
-0.000321303
-0.000530222
-0.000578674
-0.000456587
-0.000131311
0.00043483
0.00126094
0.00232245
0.00353388
0.00474213
0.00574995
0.00636084
0.00644273
0.00598283
0.0051053
0.00400805
0.0029078
0.00177606
0.000583819
-0.000233179
-0.000703935
-0.00100944
-0.00118923
-0.00123124
-0.00108504
-0.000684174
2.43886e-05
0.00104681
0.00231896
0.00368389
0.00491325
0.00574997
0.00598502
0.00553678
0.00449713
0.00306731
0.00153462
0.0011768
-0.00021259
-0.00116556
-0.00174726
-0.00219601
-0.00256312
-0.00282833
-0.0029171
-0.0027265
-0.00215947
-0.00116722
0.000228118
0.00186753
0.00349014
0.00475661
0.0053394
0.00503795
0.00387605
0.00205563
-2.08329e-05
-0.000252225
-0.00180214
-0.00288629
-0.00360692
-0.00424981
-0.00487313
-0.00544421
-0.00585949
-0.00597159
-0.0056246
-0.00469678
-0.00317557
-0.00116564
0.00104357
0.00301467
0.00425168
0.00435845
0.00321673
0.000989782
-0.00176129
-0.00264892
-0.00431528
-0.00552169
-0.00640862
-0.00730091
-0.00826205
-0.00924645
-0.0101196
-0.0106831
-0.0107082
-0.00998377
-0.00838876
-0.00596344
-0.00298023
3.15568e-05
0.00236005
0.00330906
0.00248949
-7.872e-05
-0.00364588
-0.00609891
-0.00783243
-0.00914684
-0.0102211
-0.0114138
-0.0127968
-0.0143157
-0.0158079
-0.0170213
-0.0176419
-0.0173401
-0.0158464
-0.0130647
-0.00918402
-0.0047822
-0.000807727
0.00162562
0.00166374
-0.00102686
-0.00552844
-0.0106253
-0.0123726
-0.0137682
-0.0150287
-0.0165479
-0.0184148
-0.0205761
-0.0228492
-0.0249324
-0.0264212
-0.0268459
-0.0257359
-0.0228019
-0.0180389
-0.0119766
-0.00575752
-0.00100154
0.000727892
-0.00161057
-0.00706812
-0.0161887
-0.0178912
-0.0193144
-0.0207105
-0.0225234
-0.0248764
-0.0277316
-0.0308989
-0.0340358
-0.0366507
-0.0381192
-0.0377107
-0.035014
-0.029585
-0.0217837
-0.0128154
-0.00479842
-0.000237042
-0.0013879
-0.00759007
-0.0227064
-0.0242942
-0.0256418
-0.0270341
-0.029007
-0.0317447
-0.035243
-0.0393164
-0.043593
-0.0475018
-0.0502885
-0.0511051
-0.048886
-0.0431352
-0.0337562
-0.0217751
-0.0096341
-0.000879533
0.000409286
-0.00587375
-0.0301053
-0.0314731
-0.0325545
-0.0336661
-0.0355221
-0.0384058
-0.042362
-0.0472153
-0.0525669
-0.0577767
-0.0619577
-0.0640251
-0.0627526
-0.0570862
-0.0464737
-0.0315136
-0.0146371
-0.000278212
0.00508605
0.000134204
-0.0384286
-0.0393657
-0.0398398
-0.0401992
-0.041491
-0.04414
-0.0482449
-0.0536276
-0.0598488
-0.0661938
-0.0716566
-0.0749614
-0.074633
-0.0692127
-0.057627
-0.0398477
-0.0178904
0.00339382
0.0147969
0.0136407
-0.0480385
-0.0480315
-0.0472855
-0.0461659
-0.0462824
-0.0482191
-0.0520998
-0.0577012
-0.0645038
-0.0716882
-0.0781171
-0.0823366
-0.0826376
-0.0772148
-0.06452
-0.0438381
-0.0164617
0.01309
0.0329927
0.0393293
-0.0601049
-0.0578413
-0.054764
-0.0511166
-0.0493238
-0.0500545
-0.0533667
-0.0589092
-0.0660114
-0.0736995
-0.0806667
-0.0852642
-0.0855541
-0.0794096
-0.0648721
-0.040572
-0.00695697
0.0328336
0.0648085
0.0836836
-0.0773702
-0.0693779
-0.0620109
-0.0544852
-0.0500711
-0.0492361
-0.0517838
-0.0571067
-0.0643055
-0.0721925
-0.0792544
-0.0836181
-0.0830979
-0.0752101
-0.0575947
-0.028221
0.0133206
0.0666284
0.115721
0.154774
-0.108843
-0.0849748
-0.0697315
-0.0563651
-0.0485107
-0.0458276
-0.0475354
-0.052589
-0.0597618
-0.0676076
-0.0743881
-0.0780002
-0.0760037
-0.0654909
-0.0436402
-0.00748185
0.0446817
0.114865
0.188014
0.263216
-0.168638
-0.100705
-0.0730791
-0.0522901
-0.0413078
-0.0376727
-0.0393779
-0.0447623
-0.0522811
-0.0602956
-0.0669248
-0.0699201
-0.0665985
-0.0537427
-0.0278909
0.0153688
0.0800038
0.172681
0.285775
0.44591
-0.402701
-0.138996
-0.0734526
-0.0447424
-0.0305815
-0.0266041
-0.0290361
-0.035285
-0.0435329
-0.052067
-0.0589819
-0.0620197
-0.0585224
-0.0451627
-0.0174439
0.031047
0.108437
0.236585
0.427413
0.793608
)
;

boundaryField
{
    movingWall
    {
        type            zeroGradient;
    }
    fixedWalls
    {
        type            zeroGradient;
    }
    frontAndBack
    {
        type            empty;
    }
}


// ************************************************************************* //
