/*--------------------------------*- C++ -*----------------------------------*\
  =========                 |
  \\      /  F ield         | OpenFOAM: The Open Source CFD Toolbox
   \\    /   O peration     | Website:  https://openfoam.org
    \\  /    A nd           | Version:  13
     \\/     M anipulation  |
\*---------------------------------------------------------------------------*/
FoamFile
{
    format      ascii;
    class       surfaceScalarField;
    location    "13";
    object      phi;
}
// * * * * * * * * * * * * * * * * * * * * * * * * * * * * * * * * * * * * * //

dimensions      [0 3 -1 0 0 0 0];

internalField   nonuniform List<scalar> 
760
(
4.28226e-06
-4.27413e-06
-3.89637e-05
4.32461e-05
-0.000130751
9.1787e-05
-0.000255587
0.000124837
-0.000397783
0.000142196
-0.000543959
0.000146176
-0.00068225
0.000138291
-0.000800967
0.000118717
-0.000888031
8.7064e-05
-0.000931665
4.36347e-05
-0.000922213
-9.45271e-06
-0.000855054
-6.71589e-05
-0.000733192
-0.000121862
-0.000569263
-0.000163929
-0.000385333
-0.00018393
-0.000209887
-0.000175446
-7.19097e-05
-0.000137977
7.16203e-06
-7.90718e-05
2.33915e-05
-1.62295e-05
2.33914e-05
-4.69e-05
4.2626e-05
-0.000209044
0.00020539
-0.000471465
0.000354208
-0.00080193
0.000455302
-0.00116674
0.000507002
-0.00153462
0.000514056
-0.00187627
0.000479943
-0.00216301
0.000405458
-0.0023667
0.000290757
-0.00246178
0.00013871
-0.00242933
-4.1902e-05
-0.00226174
-0.000234744
-0.00196831
-0.000415293
-0.00157773
-0.000554509
-0.00113747
-0.000624191
-0.000707762
-0.000605155
-0.000349965
-0.000495774
-0.000110765
-0.000318272
-5.85846e-06
-0.000121136
1.75329e-05
-0.00011084
0.000153466
-0.000403046
0.000497597
-0.000830037
0.000781198
-0.00134277
0.000968031
-0.00189465
0.00105888
-0.0024425
0.00106191
-0.0029453
0.000982742
-0.00336302
0.000823181
-0.0036572
0.000584936
-0.00379379
0.000275303
-0.00374809
-8.76072e-05
-0.00351057
-0.000472266
-0.00309288
-0.000832982
-0.00253164
-0.00111574
-0.00188841
-0.00126742
-0.0012434
-0.00125017
-0.000681749
-0.00105743
-0.000273435
-0.000726585
-5.21371e-05
-0.000342435
-3.46041e-05
-0.000172109
0.000325575
-0.0005901
0.000915588
-0.00117241
0.00136351
-0.00185118
0.0016468
-0.00256855
0.00177625
-0.00327309
0.00176644
-0.00391649
0.00162614
-0.00445178
0.00135847
-0.0048338
0.00096696
-0.00502217
0.000463669
-0.00498622
-0.000123553
-0.00471121
-0.000747281
-0.00420529
-0.0013389
-0.00350531
-0.00181572
-0.00267953
-0.00209321
-0.00182388
-0.00210581
-0.0010484
-0.00183291
-0.000453384
-0.0013216
-0.000101771
-0.000694047
-0.000136375
-0.000226854
0.000552429
-0.000758985
0.00144772
-0.00148222
0.00208675
-0.00231055
0.00247512
-0.00317643
0.00264214
-0.00402301
0.00261302
-0.00479813
0.00240127
-0.0054512
0.00201154
-0.00593272
0.00144848
-0.00619648
0.00072743
-0.006204
-0.000116038
-0.00593043
-0.00102084
-0.00537337
-0.00189596
-0.00456156
-0.00262753
-0.0035629
-0.00309186
-0.0024863
-0.00318242
-0.00147098
-0.00284823
-0.00065896
-0.00213362
-0.000156174
-0.00119683
-0.000292549
-0.000273094
0.000825522
-0.000902807
0.00207743
-0.00174751
0.00293145
-0.00270571
0.00343332
-0.00370248
0.00363891
-0.00467814
0.00358868
-0.00557971
0.00330284
-0.00635579
0.00278761
-0.00695448
0.00204718
-0.00732401
0.00109695
-0.00741628
-2.37628e-05
-0.00719129
-0.00124584
-0.00662885
-0.0024584
-0.00574012
-0.00351626
-0.00458321
-0.00424877
-0.0032743
-0.00449133
-0.0019846
-0.00413793
-0.000911296
-0.00320692
-0.00022259
-0.00188554
-0.000515139
-0.000308951
0.00113447
-0.00101531
0.00278379
-0.00195657
0.00387271
-0.00301953
0.00449628
-0.00412458
0.00474396
-0.00521184
0.00467594
-0.00623033
0.00432134
-0.00713068
0.00368796
-0.00786099
0.00277748
-0.00836534
0.00160131
-0.0085844
0.000195296
-0.00846203
-0.00136821
-0.00795273
-0.00296771
-0.00703998
-0.004429
-0.00575896
-0.00552979
-0.0042209
-0.0060294
-0.00262505
-0.00573378
-0.00123588
-0.00459609
-0.00031048
-0.00281094
-0.000825619
-0.000332538
0.00146701
-0.00109041
0.00354167
-0.00209746
0.00487976
-0.00323282
0.00563164
-0.00441485
0.00592599
-0.00558596
0.00584705
-0.00669991
0.00543529
-0.00771251
0.00470056
-0.00857519
0.00364015
-0.00923098
0.0022571
-0.00961295
0.000577274
-0.00964714
-0.00133402
-0.00926079
-0.00335405
-0.00840036
-0.00528943
-0.00706176
-0.00686839
-0.00533027
-0.00776088
-0.00341692
-0.00764714
-0.00165736
-0.00635564
-0.000430403
-0.0040379
-0.00125602
-0.000342604
0.00180961
-0.00112361
0.00432267
-0.00216015
0.0059163
-0.00332727
0.00679875
-0.00454362
0.00714234
-0.00575606
0.00705949
-0.00692578
0.00660502
-0.00801724
0.00579202
-0.00898968
0.00461259
-0.00979064
0.00305806
-0.0103514
0.00113803
-0.0105858
-0.00109958
-0.0103958
-0.00354406
-0.00968579
-0.00599947
-0.00839619
-0.008158
-0.00655768
-0.00959939
-0.00435976
-0.00984506
-0.00219448
-0.00852092
-0.000593736
-0.00563865
-0.00184976
-0.000339676
0.00214929
-0.00111465
0.00509765
-0.00214064
0.00694229
-0.00329106
0.00794918
-0.00448677
0.00833805
-0.00568105
0.00825377
-0.00684503
0.00776899
-0.00795543
0.00690242
-0.00898457
0.00564174
-0.00989183
0.00396532
-0.010616
0.00186222
-0.0110687
-0.000646881
-0.0111367
-0.00347613
-0.0106847
-0.00645146
-0.00958736
-0.0092553
-0.00779015
-0.0113966
-0.00541083
-0.0122244
-0.00285237
-0.0110794
-0.000812279
-0.00767874
-0.00266204
-0.000327615
0.00247691
-0.00107115
0.00584118
-0.00204633
0.00791747
-0.00312609
0.00902893
-0.00423535
0.00944731
-0.00533602
0.00935444
-0.00641171
0.00884468
-0.00745488
0.00794559
-0.00845608
0.00664293
-0.00939413
0.00490338
-0.010227
0.00269513
-0.010874
4.99409e-08
-0.0112304
-0.00311971
-0.0111304
-0.00655145
-0.0103861
-0.00999963
-0.00883548
-0.0129472
-0.00646638
-0.0145935
-0.00361035
-0.0139354
-0.00109672
-0.0101924
-0.00375876
-0.00031568
0.00279259
-0.00101277
0.00653827
-0.00190182
0.00880652
-0.00285508
0.00998219
-0.00380461
0.0103968
-0.00472437
0.0102742
-0.00561351
0.00973382
-0.00648312
0.0088152
-0.00734566
0.00750547
-0.00820534
0.00576307
-0.00904693
0.00353671
-0.00982984
0.00078296
-0.0104485
-0.00250106
-0.0107492
-0.00625075
-0.0105001
-0.0102487
-0.00943041
-0.0140169
-0.00734898
-0.0166749
-0.00440537
-0.016879
-0.00145258
-0.0131452
-0.00521133
-0.000321536
0.00311412
-0.000975951
0.00719269
-0.00175373
0.0095843
-0.0025262
0.0107547
-0.00323894
0.0111096
-0.00388435
0.0109196
-0.00448151
0.010331
-0.00506281
0.00939649
-0.0056646
0.00810725
-0.00631919
0.00641766
-0.00704561
0.00426313
-0.00783736
0.0015747
-0.00863807
-0.00170034
-0.00931976
-0.00556906
-0.00964803
-0.00992042
-0.0092736
-0.0143913
-0.00781054
-0.018138
-0.0051148
-0.0195747
-0.00187184
-0.0163881
-0.00708318
-0.000376066
0.00349019
-0.00101908
0.0078357
-0.00167267
0.0102379
-0.00221081
0.0112928
-0.00260598
0.0115048
-0.00288025
0.0111939
-0.00307915
0.0105299
-0.00325868
0.00957603
-0.00347861
0.00832719
-0.00379772
0.00673677
-0.00426794
0.00473335
-0.00492448
0.00223125
-0.00576647
-0.000858355
-0.00672618
-0.00460935
-0.00761733
-0.00902927
-0.00807534
-0.0139333
-0.00755491
-0.0186584
-0.00554553
-0.0215841
-0.00231904
-0.0196146
-0.00940221
-0.000531854
0.00402204
-0.00122593
0.00852978
-0.00174511
0.0107571
-0.00198351
0.0115312
-0.00196657
0.0114878
-0.00176388
0.0109912
-0.00145624
0.0102222
-0.00112533
0.00924512
-0.000851985
0.00805384
-0.000716353
0.00660113
-0.000796918
0.00481391
-0.00116642
0.00260075
-0.00188044
-0.000144334
-0.00295009
-0.0035397
-0.00428605
-0.00769331
-0.00559447
-0.0126249
-0.00626658
-0.0179863
-0.00543148
-0.0224192
-0.00271045
-0.0223356
-0.0121127
-0.000871205
0.00489325
-0.00169176
0.00935033
-0.00202732
0.0110926
-0.00184743
0.0113513
-0.0012781
0.0109185
-0.000462022
0.0101751
0.000475295
0.00928492
0.00142634
0.00829408
0.00229379
0.00718639
0.00298361
0.00591131
0.0033999
0.00439762
0.00344284
0.00255781
0.00301062
0.000287887
0.00201545
-0.00254453
0.000423402
-0.00610127
-0.00162686
-0.0105746
-0.0036132
-0.016
-0.00442225
-0.0216102
-0.00288293
-0.023875
-0.0149956
-0.00149671
0.00638996
-0.00241767
0.0102713
-0.00234321
0.0110182
-0.0014694
0.0104775
-0.000100047
0.00954914
0.00152489
0.00855017
0.00323524
0.00757457
0.00490658
0.00662274
0.00643708
0.00565588
0.00773105
0.00461734
0.00868808
0.00344059
0.00919577
0.00205012
0.00912361
0.000360048
0.00832918
-0.0017501
0.00666618
-0.00443826
0.00407458
-0.00798304
0.000830228
-0.0127556
-0.00201173
-0.0187682
-0.0025053
-0.0233814
-0.0175009
-0.00234177
0.00873172
-0.00282332
0.0107529
-0.00159307
0.00978792
0.000561174
0.00832324
0.00310358
0.00700673
0.00573587
0.00591788
0.00829218
0.00501826
0.0106717
0.00424321
0.0127985
0.00352911
0.0145984
0.00281743
0.015986
0.00205304
0.016855
0.00118104
0.0170692
0.000145907
0.0164656
-0.0011465
0.0148296
-0.00280225
0.0119257
-0.0050792
0.00764244
-0.00847233
0.00260718
-0.013733
-0.000910648
-0.0198636
-0.0184115
-0.00200208
0.0107338
0.000357749
0.00839302
0.00431711
0.00582856
0.0083287
0.00431165
0.0120827
0.00325272
0.0154812
0.00251941
0.0185021
0.00199738
0.0211464
0.0015989
0.0234091
0.00126637
0.0252666
0.000959949
0.0266704
0.000649183
0.0275417
0.000309816
0.0277703
-8.27086e-05
0.0272042
-0.000580362
0.025621
-0.00121914
0.0226913
-0.00214941
0.0179479
-0.00372902
0.0109479
-0.00673288
0.00302366
-0.0119394
-0.0153879
0.0107338
0.0191268
0.0249554
0.029267
0.0325198
0.0350392
0.0370365
0.0386354
0.0399018
0.0408618
0.041511
0.0418208
0.0417381
0.0411577
0.0399386
0.0377891
0.0340601
0.0273272
0.0153879
)
;

boundaryField
{
    movingWall
    {
        type            calculated;
        value           uniform 0;
    }
    fixedWalls
    {
        type            calculated;
        value           uniform 0;
    }
    frontAndBack
    {
        type            empty;
    }
}


// ************************************************************************* //
