/*--------------------------------*- C++ -*----------------------------------*\
  =========                 |
  \\      /  F ield         | OpenFOAM: The Open Source CFD Toolbox
   \\    /   O peration     | Website:  https://openfoam.org
    \\  /    A nd           | Version:  13
     \\/     M anipulation  |
\*---------------------------------------------------------------------------*/
FoamFile
{
    format      ascii;
    class       surfaceScalarField;
    location    "13";
    object      phi_0;
}
// * * * * * * * * * * * * * * * * * * * * * * * * * * * * * * * * * * * * * //

dimensions      [0 3 -1 0 0 0 0];

internalField   nonuniform List<scalar> 
760
(
4.27761e-06
-4.27768e-06
-3.89665e-05
4.32437e-05
-0.000130751
9.17843e-05
-0.000255584
0.000124833
-0.000397776
0.000142192
-0.000543949
0.000146173
-0.000682236
0.000138287
-0.00080095
0.000118714
-0.000888012
8.70622e-05
-0.000931647
4.36341e-05
-0.000922195
-9.4518e-06
-0.000855038
-6.71566e-05
-0.00073318
-0.000121859
-0.000569255
-0.000163925
-0.000385329
-0.000183925
-0.000209887
-0.000175443
-7.19112e-05
-0.000137976
7.16012e-06
-7.90713e-05
2.33904e-05
-1.62302e-05
2.33904e-05
-4.6901e-05
4.26228e-05
-0.000209041
0.000205384
-0.000471455
0.000354198
-0.000801912
0.00045529
-0.00116671
0.000506989
-0.00153458
0.000514044
-0.00187622
0.000479931
-0.00216296
0.000405449
-0.00236665
0.000290751
-0.00246172
0.000138709
-0.00242928
-4.18982e-05
-0.0022617
-0.000234735
-0.00196828
-0.000415281
-0.00157771
-0.000554494
-0.00113745
-0.000624176
-0.000707754
-0.000605143
-0.000349964
-0.000495766
-0.000110766
-0.000318269
-5.85944e-06
-0.000121137
1.75311e-05
-0.000110838
0.000153461
-0.000403037
0.000497583
-0.000830016
0.000781178
-0.00134273
0.000968006
-0.0018946
0.00105886
-0.00244244
0.00106188
-0.00294522
0.000982719
-0.00336294
0.000823164
-0.00365711
0.000584926
-0.00379371
0.000275302
-0.00374801
-8.75987e-05
-0.00351049
-0.000472248
-0.00309282
-0.000832957
-0.0025316
-0.00111571
-0.00188838
-0.00126739
-0.00124338
-0.00125014
-0.000681741
-0.00105741
-0.000273434
-0.000726576
-5.21374e-05
-0.000342433
-3.46061e-05
-0.000172104
0.000325565
-0.000590085
0.000915564
-0.00117238
0.00136347
-0.00185113
0.00164676
-0.00256848
0.00177621
-0.003273
0.0017664
-0.00391639
0.00162611
-0.00445167
0.00135844
-0.00483369
0.000966945
-0.00502206
0.000463668
-0.00498612
-0.000123539
-0.00471111
-0.000747253
-0.00420521
-0.00133886
-0.00350525
-0.00181568
-0.00267948
-0.00209316
-0.00182385
-0.00210577
-0.00104838
-0.00183288
-0.000453379
-0.00132158
-0.000101771
-0.000694041
-0.000136377
-0.000226848
0.000552413
-0.000758963
0.00144768
-0.00148218
0.00208669
-0.00231048
0.00247506
-0.00317635
0.00264208
-0.00402291
0.00261296
-0.00479802
0.00240122
-0.00545107
0.0020115
-0.00593259
0.00144846
-0.00619635
0.00072743
-0.00620387
-0.000116017
-0.00593032
-0.00102081
-0.00537327
-0.0018959
-0.00456148
-0.00262747
-0.00356285
-0.0030918
-0.00248626
-0.00318236
-0.00147096
-0.00284818
-0.000658951
-0.00213359
-0.000156172
-0.00119682
-0.000292548
-0.000273086
0.000825499
-0.000902782
0.00207738
-0.00174747
0.00293137
-0.00270564
0.00343323
-0.00370239
0.00363882
-0.00467803
0.0035886
-0.00557959
0.00330278
-0.00635565
0.00278756
-0.00695434
0.00204715
-0.00732386
0.00109695
-0.00741614
-2.37364e-05
-0.00719116
-0.00124579
-0.00662873
-0.00245833
-0.00574003
-0.00351617
-0.00458314
-0.00424869
-0.00327425
-0.00449124
-0.00198457
-0.00413786
-0.000911283
-0.00320687
-0.000222587
-0.00188552
-0.000515135
-0.000308942
0.00113444
-0.00101529
0.00278372
-0.00195652
0.00387261
-0.00301946
0.00449617
-0.00412449
0.00474385
-0.00521173
0.00467584
-0.00623021
0.00432126
-0.00713055
0.0036879
-0.00786085
0.00277745
-0.0083652
0.00160131
-0.00858426
0.000195326
-0.0084619
-0.00136815
-0.00795261
-0.00296762
-0.00703988
-0.0044289
-0.00575889
-0.00552968
-0.00422084
-0.00602929
-0.00262501
-0.00573369
-0.00123586
-0.00459602
-0.000310476
-0.0028109
-0.000825611
-0.00033253
0.00146697
-0.00109039
0.00354158
-0.00209742
0.00487964
-0.00323275
0.00563151
-0.00441476
0.00592586
-0.00558586
0.00584693
-0.0066998
0.0054352
-0.00771239
0.0047005
-0.00857506
0.00364012
-0.00923085
0.0022571
-0.00961283
0.000577307
-0.00964702
-0.00133396
-0.00926069
-0.00335396
-0.00840027
-0.00528932
-0.00706168
-0.00686827
-0.00533021
-0.00776076
-0.00341688
-0.00764702
-0.00165734
-0.00635556
-0.000430398
-0.00403785
-0.00125601
-0.000342599
0.00180957
-0.00112359
0.00432257
-0.00216012
0.00591617
-0.00332722
0.00679861
-0.00454355
0.00714219
-0.00575598
0.00705936
-0.00692569
0.00660491
-0.00801714
0.00579195
-0.00898958
0.00461255
-0.00979054
0.00305806
-0.0103513
0.00113807
-0.0105857
-0.00109952
-0.0103957
-0.00354397
-0.00968571
-0.00599935
-0.00839612
-0.00815786
-0.00655763
-0.00959925
-0.00435972
-0.00984493
-0.00219446
-0.00852081
-0.00059373
-0.00563858
-0.00184974
-0.000339673
0.00214924
-0.00111464
0.00509754
-0.00214062
0.00694214
-0.00329103
0.00794902
-0.00448673
0.00833789
-0.005681
0.00825364
-0.00684497
0.00776888
-0.00795537
0.00690234
-0.00898452
0.0056417
-0.00989178
0.00396532
-0.010616
0.00186226
-0.0110687
-0.000646812
-0.0111366
-0.00347603
-0.0106846
-0.00645134
-0.00958731
-0.00925517
-0.0077901
-0.0113965
-0.00541079
-0.0122242
-0.00285235
-0.0110793
-0.000812272
-0.00767866
-0.00266201
-0.000327615
0.00247686
-0.00107115
0.00584107
-0.00204633
0.00791732
-0.00312608
0.00902877
-0.00423534
0.00944716
-0.005336
0.0093543
-0.0064117
0.00884458
-0.00745487
0.00794552
-0.00845607
0.0066429
-0.00939413
0.00490338
-0.010227
0.00269517
-0.010874
1.18677e-07
-0.0112304
-0.00311962
-0.0111304
-0.00655134
-0.0103861
-0.0099995
-0.00883546
-0.0129471
-0.00646636
-0.0145933
-0.00361034
-0.0139353
-0.00109671
-0.0101923
-0.00375872
-0.000315684
0.00279254
-0.00101278
0.00653816
-0.00190183
0.00880637
-0.00285509
0.00998203
-0.00380463
0.0103967
-0.0047244
0.0102741
-0.00561354
0.00973372
-0.00648316
0.00881513
-0.0073457
0.00750544
-0.00820539
0.00576307
-0.00904698
0.00353675
-0.00982989
0.000783027
-0.0104485
-0.00250097
-0.0107492
-0.00625065
-0.0105001
-0.0102486
-0.00943042
-0.0140168
-0.00734898
-0.0166748
-0.00440536
-0.0168789
-0.00145257
-0.0131451
-0.00521129
-0.000321542
0.00311408
-0.000975969
0.00719259
-0.00175376
0.00958417
-0.00252624
0.0107545
-0.003239
0.0111095
-0.00388441
0.0109195
-0.00448159
0.0103309
-0.00506289
0.00939644
-0.00566469
0.00810723
-0.00631928
0.00641767
-0.00704571
0.00426318
-0.00783745
0.00157477
-0.00863816
-0.00170026
-0.00931984
-0.00556897
-0.00964808
-0.00992033
-0.00927363
-0.0143912
-0.00781055
-0.0181379
-0.0051148
-0.0195746
-0.00187184
-0.016388
-0.00708313
-0.000376075
0.00349016
-0.00101911
0.00783562
-0.00167272
0.0102378
-0.00221088
0.0112927
-0.00260607
0.0115046
-0.00288035
0.0111938
-0.00307926
0.0105298
-0.0032588
0.00957598
-0.00347874
0.00832717
-0.00379785
0.00673678
-0.00426806
0.00473339
-0.00492461
0.00223131
-0.00576659
-0.000858283
-0.00672628
-0.00460928
-0.00761742
-0.00902919
-0.0080754
-0.0139332
-0.00755495
-0.0186583
-0.00554554
-0.021584
-0.00231904
-0.0196145
-0.00940217
-0.000531865
0.00402202
-0.00122596
0.00852972
-0.00174517
0.010757
-0.0019836
0.0115311
-0.00196667
0.0114877
-0.001764
0.0109911
-0.00145637
0.0102222
-0.00112548
0.00924508
-0.000852135
0.00805383
-0.000716503
0.00660115
-0.000797063
0.00481395
-0.00116656
0.0026008
-0.00188057
-0.000144272
-0.00295021
-0.00353964
-0.00428615
-0.00769325
-0.00559455
-0.0126248
-0.00626664
-0.0179862
-0.00543151
-0.0224192
-0.00271045
-0.0223356
-0.0121126
-0.000871217
0.00489324
-0.00169179
0.0093503
-0.00202739
0.0110926
-0.00184752
0.0113512
-0.00127822
0.0109184
-0.000462159
0.010175
0.000475144
0.00928487
0.00142618
0.00829405
0.00229363
0.00718638
0.00298345
0.00591133
0.00339975
0.00439765
0.00344271
0.00255785
0.0030105
0.000287937
0.00201534
-0.00254448
0.000423307
-0.00610122
-0.00162694
-0.0105746
-0.00361325
-0.0159999
-0.00442228
-0.0216101
-0.00288294
-0.0238749
-0.0149956
-0.00149672
0.00638996
-0.0024177
0.0102713
-0.00234327
0.0110181
-0.00146949
0.0104774
-0.000100157
0.00954909
0.00152476
0.00855012
0.0032351
0.00757453
0.00490643
0.00662272
0.00643693
0.00565587
0.00773091
0.00461735
0.00868795
0.00344061
0.00919565
0.00205015
0.0091235
0.000360084
0.00832909
-0.00175007
0.0066661
-0.00443823
0.00407451
-0.00798301
0.00083018
-0.0127556
-0.00201176
-0.0187682
-0.00250531
-0.0233814
-0.0175009
-0.00234177
0.00873173
-0.00282334
0.0107529
-0.0015931
0.00978791
0.000561115
0.00832322
0.0031035
0.00700671
0.00573577
0.00591785
0.00829206
0.00501824
0.0106716
0.0042432
0.0127984
0.0035291
0.0145983
0.00281743
0.0159858
0.00205305
0.0168549
0.00118106
0.0170691
0.000145927
0.0164655
-0.00114648
0.0148295
-0.00280224
0.0119257
-0.00507919
0.00764241
-0.00847233
0.00260715
-0.013733
-0.000910657
-0.0198636
-0.0184115
-0.00200208
0.0107338
0.000357749
0.00839302
0.0043171
0.00582856
0.00832868
0.00431164
0.0120827
0.00325271
0.0154811
0.0025194
0.018502
0.00199737
0.0211463
0.0015989
0.023409
0.00126637
0.0252665
0.000959951
0.0266704
0.000649188
0.0275416
0.000309823
0.0277702
-8.27006e-05
0.0272041
-0.000580355
0.025621
-0.00121914
0.0226912
-0.00214941
0.0179479
-0.00372902
0.0109479
-0.00673288
0.00302365
-0.0119394
-0.0153879
0.0107338
0.0191268
0.0249554
0.029267
0.0325197
0.0350391
0.0370365
0.0386354
0.0399018
0.0408617
0.0415109
0.0418207
0.041738
0.0411577
0.0399386
0.0377891
0.0340601
0.0273272
0.0153879
)
;

boundaryField
{
    movingWall
    {
        type            calculated;
        value           uniform 0;
    }
    fixedWalls
    {
        type            calculated;
        value           uniform 0;
    }
    frontAndBack
    {
        type            empty;
    }
}


// ************************************************************************* //
