/*--------------------------------*- C++ -*----------------------------------*\
  =========                 |
  \\      /  F ield         | OpenFOAM: The Open Source CFD Toolbox
   \\    /   O peration     | Website:  https://openfoam.org
    \\  /    A nd           | Version:  13
     \\/     M anipulation  |
\*---------------------------------------------------------------------------*/
FoamFile
{
    format      ascii;
    class       volVectorField;
    location    "13";
    object      U;
}
// * * * * * * * * * * * * * * * * * * * * * * * * * * * * * * * * * * * * * //

dimensions      [0 1 -1 0 0 0 0];

internalField   nonuniform List<vector> 
400
(
(0.000211936 -0.000212192 0)
(-9.58391e-05 -1.40519e-05 0)
(-0.00151099 0.00020208 0)
(-0.00374953 0.000339512 0)
(-0.00648724 0.000411663 0)
(-0.00943036 0.000439574 0)
(-0.0123308 0.000433749 0)
(-0.0149569 0.000393736 0)
(-0.0170705 0.000313107 0)
(-0.0184268 0.000186341 0)
(-0.018801 1.57447e-05 0)
(-0.0180377 -0.000185826 0)
(-0.0161106 -0.000386673 0)
(-0.0131724 -0.000545204 0)
(-0.00957722 -0.000617415 0)
(-0.00585043 -0.000571139 0)
(-0.00259747 -0.000400037 0)
(-0.000351344 -0.000134969 0)
(0.000579844 0.000141951 0)
(0.00031837 0.000305241 0)
(1.77325e-06 9.34592e-05 0)
(-0.00200967 0.00186701 0)
(-0.00638645 0.00365098 0)
(-0.0124867 0.00488296 0)
(-0.0195999 0.00553324 0)
(-0.0270755 0.00567176 0)
(-0.0343133 0.00534869 0)
(-0.0407374 0.00457169 0)
(-0.0457746 0.00333202 0)
(-0.0488724 0.001649 0)
(-0.0495642 -0.000386508 0)
(-0.04756 -0.00258594 0)
(-0.0428574 -0.00465822 0)
(-0.0358309 -0.00624839 0)
(-0.0272574 -0.00701088 0)
(-0.0182548 -0.00671287 0)
(-0.010105 -0.00534021 0)
(-0.00396764 -0.00317486 0)
(-0.000528388 -0.000845391 0)
(0.000242729 0.000608415 0)
(-0.000276568 0.00167543 0)
(-0.00436614 0.00640555 0)
(-0.0117708 0.0105626 0)
(-0.0214206 0.0133719 0)
(-0.0322914 0.0147912 0)
(-0.0434986 0.0149375 0)
(-0.0542074 0.0138985 0)
(-0.063609 0.0116977 0)
(-0.0709096 0.00835014 0)
(-0.0753641 0.00395081 0)
(-0.0763583 -0.00124152 0)
(-0.073521 -0.00675411 0)
(-0.06685 -0.011908 0)
(-0.0568187 -0.015894 0)
(-0.0444217 -0.0179295 0)
(-0.0311222 -0.0174789 0)
(-0.0186556 -0.014489 0)
(-0.00867544 -0.00956571 0)
(-0.00231698 -0.00402923 0)
(8.81086e-05 5.90378e-05 0)
(-0.000529039 0.00452676 0)
(-0.0066459 0.013554 0)
(-0.0169605 0.0207251 0)
(-0.0299032 0.0253797 0)
(-0.0441379 0.0275908 0)
(-0.058607 0.0275661 0)
(-0.072326 0.0254428 0)
(-0.0843446 0.0212682 0)
(-0.0937321 0.0150958 0)
(-0.0996128 0.0071211 0)
(-0.101249 -0.00219423 0)
(-0.0981554 -0.0120519 0)
(-0.0902357 -0.0213196 0)
(-0.077919 -0.0286453 0)
(-0.0622551 -0.0326884 0)
(-0.0449223 -0.032469 0)
(-0.0280689 -0.0277744 0)
(-0.0139241 -0.0194889 0)
(-0.00427322 -0.00967916 0)
(-3.73772e-05 -0.00145967 0)
(-0.000745799 0.00855031 0)
(-0.00869338 0.0231244 0)
(-0.0216576 0.0338646 0)
(-0.0375791 0.040539 0)
(-0.0548314 0.0435059 0)
(-0.0722295 0.0431407 0)
(-0.0887054 0.0396571 0)
(-0.103239 0.0331323 0)
(-0.114824 0.0236542 0)
(-0.122486 0.0115078 0)
(-0.125354 -0.00265959 0)
(-0.12276 -0.0177388 0)
(-0.114391 -0.0321342 0)
(-0.100469 -0.0438893 0)
(-0.0819325 -0.0509632 0)
(-0.06056 -0.0517116 0)
(-0.0389186 -0.0455162 0)
(-0.0199787 -0.0333701 0)
(-0.00646203 -0.0180872 0)
(-0.000142748 -0.00399676 0)
(-0.000924488 0.0135924 0)
(-0.0104261 0.0348325 0)
(-0.0256673 0.0496511 0)
(-0.0441643 0.058511 0)
(-0.064049 0.062226 0)
(-0.0840559 0.06143 0)
(-0.103091 0.0564505 0)
(-0.120127 0.0473963 0)
(-0.134133 0.0343658 0)
(-0.144061 0.0176849 0)
(-0.148893 -0.00188185 0)
(-0.147712 -0.0229699 0)
(-0.139864 -0.043572 0)
(-0.125192 -0.0610857 0)
(-0.104318 -0.0726055 0)
(-0.078952 -0.0755115 0)
(-0.0520268 -0.0683759 0)
(-0.0274154 -0.0519672 0)
(-0.00915169 -0.029791 0)
(-0.000262636 -0.00770452 0)
(-0.00105942 0.0194638 0)
(-0.0117712 0.0483026 0)
(-0.0288117 0.0676436 0)
(-0.0493685 0.0788581 0)
(-0.0713959 0.0833682 0)
(-0.0935968 0.0821585 0)
(-0.114907 0.0757119 0)
(-0.134349 0.0641683 0)
(-0.150923 0.0475974 0)
(-0.163551 0.0262902 0)
(-0.171066 0.00102192 0)
(-0.17228 -0.0267212 0)
(-0.166117 -0.0546062 0)
(-0.151865 -0.0794046 0)
(-0.129591 -0.097203 0)
(-0.100653 -0.104037 0)
(-0.0681485 -0.0970866 0)
(-0.0369008 -0.0763008 0)
(-0.012695 -0.0456455 0)
(-0.000441344 -0.0129115 0)
(-0.00114314 0.025937 0)
(-0.0126579 0.0630725 0)
(-0.030918 0.0872865 0)
(-0.0528866 0.101013 0)
(-0.0764077 0.106409 0)
(-0.100199 0.104899 0)
(-0.123278 0.0971651 0)
(-0.144776 0.0833822 0)
(-0.163791 0.0635482 0)
(-0.179278 0.037829 0)
(-0.189996 0.00687628 0)
(-0.19451 -0.0278821 0)
(-0.191296 -0.0639465 0)
(-0.178982 -0.0975812 0)
(-0.156826 -0.123818 0)
(-0.125443 -0.137002 0)
(-0.0876555 -0.132188 0)
(-0.049027 -0.107534 0)
(-0.0174821 -0.0668277 0)
(-0.000733992 -0.0201506 0)
(-0.0011714 0.0327493 0)
(-0.0130393 0.0785998 0)
(-0.0318532 0.107906 0)
(-0.0544493 0.124248 0)
(-0.0786206 0.130619 0)
(-0.10314 0.128965 0)
(-0.12715 0.120225 0)
(-0.149955 0.104618 0)
(-0.170826 0.0820422 0)
(-0.188857 0.0524537 0)
(-0.202847 0.0162378 0)
(-0.211237 -0.0254246 0)
(-0.212142 -0.0701195 0)
(-0.203524 -0.11386 0)
(-0.183633 -0.150758 0)
(-0.151892 -0.173287 0)
(-0.110168 -0.173608 0)
(-0.0641254 -0.146689 0)
(-0.023917 -0.094759 0)
(-0.00121641 -0.0301773 0)
(-0.00115074 0.0396251 0)
(-0.0129309 0.0942941 0)
(-0.0315927 0.128726 0)
(-0.0539192 0.147667 0)
(-0.0776974 0.155022 0)
(-0.101789 0.153345 0)
(-0.125506 0.14389 0)
(-0.148382 0.126962 0)
(-0.169952 0.102351 0)
(-0.189567 0.0697543 0)
(-0.206242 0.0291738 0)
(-0.218483 -0.0186584 0)
(-0.224268 -0.0716898 0)
(-0.221045 -0.126107 0)
(-0.206011 -0.175494 0)
(-0.177015 -0.210594 0)
(-0.134139 -0.220129 0)
(-0.0819931 -0.194172 0)
(-0.0323744 -0.130915 0)
(-0.00200205 -0.043985 0)
(-0.00110886 0.0463253 0)
(-0.0124636 0.109584 0)
(-0.0303099 0.148924 0)
(-0.0514153 0.170233 0)
(-0.0735924 0.178403 0)
(-0.0958326 0.176679 0)
(-0.117663 0.166713 0)
(-0.138904 0.148949 0)
(-0.159433 0.123105 0)
(-0.17899 0.0886195 0)
(-0.196986 0.0450657 0)
(-0.212214 -0.00740428 0)
(-0.222873 -0.0675903 0)
(-0.226238 -0.13215 0)
(-0.218629 -0.194848 0)
(-0.196203 -0.245329 0)
(-0.156496 -0.268884 0)
(-0.101511 -0.249105 0)
(-0.0430935 -0.176457 0)
(-0.00326466 -0.0628068 0)
(-0.00110978 0.0527321 0)
(-0.011951 0.124031 0)
(-0.0284777 0.167718 0)
(-0.0474407 0.190828 0)
(-0.0667089 0.199352 0)
(-0.0854768 0.19732 0)
(-0.103552 0.186857 0)
(-0.121096 0.168618 0)
(-0.138393 0.142313 0)
(-0.155651 0.10717 0)
(-0.172808 0.0623405 0)
(-0.189377 0.0073036 0)
(-0.20396 -0.0576738 0)
(-0.214008 -0.13037 0)
(-0.215663 -0.205548 0)
(-0.203638 -0.272883 0)
(-0.172561 -0.315108 0)
(-0.120235 -0.308578 0)
(-0.0559495 -0.231615 0)
(-0.0052594 -0.0880645 0)
(-0.00128023 0.0589825 0)
(-0.0119789 0.137481 0)
(-0.0269682 0.184481 0)
(-0.0429763 0.208342 0)
(-0.0579897 0.216355 0)
(-0.071555 0.213439 0)
(-0.0838699 0.202251 0)
(-0.0955061 0.18371 0)
(-0.107192 0.157585 0)
(-0.119649 0.122983 0)
(-0.133432 0.0787064 0)
(-0.148746 0.0236004 0)
(-0.165053 -0.0429298 0)
(-0.18063 -0.120299 0)
(-0.191987 -0.205065 0)
(-0.193234 -0.288424 0)
(-0.176442 -0.352443 0)
(-0.134146 -0.367111 0)
(-0.0700651 -0.294814 0)
(-0.00831921 -0.121201 0)
(-0.0018582 0.0656751 0)
(-0.0135321 0.150243 0)
(-0.0271311 0.198829 0)
(-0.0394775 0.221709 0)
(-0.0488322 0.227846 0)
(-0.0553785 0.223134 0)
(-0.059883 0.210759 0)
(-0.0634098 0.191904 0)
(-0.0671435 0.166434 0)
(-0.0722904 0.133416 0)
(-0.079985 0.0914542 0)
(-0.0911561 0.0389433 0)
(-0.106243 -0.0256145 0)
(-0.124726 -0.103123 0)
(-0.14433 -0.192528 0)
(-0.159783 -0.288078 0)
(-0.161848 -0.373923 0)
(-0.137771 -0.416732 0)
(-0.0832841 -0.361706 0)
(-0.0127773 -0.163311 0)
(-0.00329624 0.0742308 0)
(-0.0181729 0.163292 0)
(-0.0307592 0.210649 0)
(-0.0385908 0.229872 0)
(-0.0405817 0.232179 0)
(-0.0380451 0.22445 0)
(-0.0325746 0.210274 0)
(-0.0258241 0.190985 0)
(-0.0194217 0.166502 0)
(-0.0149751 0.135892 0)
(-0.0140771 0.0976854 0)
(-0.0182661 0.0500524 0)
(-0.0288913 -0.00905725 0)
(-0.0467646 -0.0817346 0)
(-0.0714451 -0.1693 0)
(-0.0996251 -0.270095 0)
(-0.122874 -0.373393 0)
(-0.12454 -0.447794 0)
(-0.0916065 -0.424357 0)
(-0.0187127 -0.214417 0)
(-0.00637305 0.0873445 0)
(-0.0281055 0.178068 0)
(-0.0394945 0.219557 0)
(-0.0409193 0.231211 0)
(-0.0327858 0.227177 0)
(-0.0183216 0.215078 0)
(-0.000258909 0.198539 0)
(0.019084 0.178778 0)
(0.0376925 0.155632 0)
(0.0536863 0.128143 0)
(0.0651875 0.0948563 0)
(0.0702557 0.053941 0)
(0.0668521 0.00320589 0)
(0.0530153 -0.0600229 0)
(0.0272133 -0.138748 0)
(-0.0101514 -0.235429 0)
(-0.0540614 -0.346838 0)
(-0.0868079 -0.450131 0)
(-0.088602 -0.470647 0)
(-0.0253127 -0.272131 0)
(-0.0125302 0.110605 0)
(-0.0452955 0.196618 0)
(-0.0516368 0.224353 0)
(-0.0411809 0.222868 0)
(-0.0174608 0.209559 0)
(0.0134051 0.191944 0)
(0.0474162 0.172911 0)
(0.0817346 0.153071 0)
(0.114186 0.131932 0)
(0.142861 0.108437 0)
(0.165842 0.0811956 0)
(0.181052 0.0485448 0)
(0.186064 0.00850796 0)
(0.178201 -0.0415071 0)
(0.154381 -0.105028 0)
(0.112147 -0.187354 0)
(0.0509522 -0.293251 0)
(-0.0144906 -0.41439 0)
(-0.0644191 -0.485013 0)
(-0.0296003 -0.330376 0)
(-0.0216095 0.148443 0)
(-0.0652624 0.213107 0)
(-0.0495006 0.214986 0)
(-0.0132336 0.194952 0)
(0.0355835 0.171449 0)
(0.0883351 0.149441 0)
(0.140798 0.129713 0)
(0.190535 0.111667 0)
(0.235915 0.0942739 0)
(0.275521 0.076358 0)
(0.307807 0.056675 0)
(0.330926 0.0338887 0)
(0.342435 0.0064695 0)
(0.339517 -0.0275406 0)
(0.318249 -0.0711313 0)
(0.274442 -0.130188 0)
(0.202005 -0.214941 0)
(0.107821 -0.33494 0)
(-0.00327116 -0.451423 0)
(-0.0232758 -0.378698 0)
(-0.0274648 0.229362 0)
(-0.0364804 0.223138 0)
(0.0465486 0.176935 0)
(0.12698 0.138692 0)
(0.205461 0.10943 0)
(0.277268 0.0878012 0)
(0.341498 0.0715131 0)
(0.398137 0.0585371 0)
(0.447243 0.0473681 0)
(0.488576 0.0368545 0)
(0.521436 0.0260426 0)
(0.544605 0.0140723 0)
(0.556131 6.2465e-05 0)
(0.553679 -0.0169805 0)
(0.533212 -0.0390411 0)
(0.490483 -0.0704247 0)
(0.415249 -0.12092 0)
(0.304853 -0.213373 0)
(0.125849 -0.348316 0)
(0.0236598 -0.378785 0)
(0.214448 0.135805 0)
(0.285162 0.0984592 0)
(0.444683 0.0569194 0)
(0.547924 0.0365818 0)
(0.621639 0.0241625 0)
(0.678184 0.0163126 0)
(0.722718 0.0113291 0)
(0.758277 0.00800304 0)
(0.786701 0.00557352 0)
(0.808883 0.00357548 0)
(0.825008 0.00170144 0)
(0.834748 -0.000262306 0)
(0.837229 -0.00249948 0)
(0.83114 -0.00504463 0)
(0.813525 -0.00849796 0)
(0.781938 -0.0135042 0)
(0.724085 -0.0231784 0)
(0.63528 -0.0406044 0)
(0.431311 -0.0912974 0)
(0.270899 -0.153524 0)
)
;

boundaryField
{
    movingWall
    {
        type            fixedValue;
        value           uniform (1 0 0);
    }
    fixedWalls
    {
        type            fixedValue;
        value           uniform (0 0 0);
    }
    frontAndBack
    {
        type            empty;
    }
}


// ************************************************************************* //
