/*--------------------------------*- C++ -*----------------------------------*\
  =========                 |
  \\      /  F ield         | OpenFOAM: The Open Source CFD Toolbox
   \\    /   O peration     | Website:  https://openfoam.org
    \\  /    A nd           | Version:  13
     \\/     M anipulation  |
\*---------------------------------------------------------------------------*/
FoamFile
{
    format      ascii;
    class       volVectorField;
    location    "13";
    object      U_0;
}
// * * * * * * * * * * * * * * * * * * * * * * * * * * * * * * * * * * * * * //

dimensions      [0 1 -1 0 0 0 0];

internalField   nonuniform List<vector> 
400
(
(0.000211877 -0.000212235 0)
(-9.59313e-05 -1.40674e-05 0)
(-0.00151103 0.00020207 0)
(-0.0037495 0.000339502 0)
(-0.00648714 0.000411652 0)
(-0.00943018 0.000439564 0)
(-0.0123305 0.000433738 0)
(-0.0149566 0.000393726 0)
(-0.0170701 0.000313099 0)
(-0.0184264 0.000186337 0)
(-0.0188006 1.57445e-05 0)
(-0.0180374 -0.000185821 0)
(-0.0161103 -0.000386663 0)
(-0.0131722 -0.000545191 0)
(-0.0095771 -0.000617402 0)
(-0.00585039 -0.00057113 0)
(-0.00259749 -0.000400034 0)
(-0.000351382 -0.000134972 0)
(0.000579812 0.000141942 0)
(0.000318361 0.000305232 0)
(1.75089e-06 9.3388e-05 0)
(-0.00200967 0.00186694 0)
(-0.00638634 0.00365089 0)
(-0.0124864 0.00488284 0)
(-0.0195995 0.0055331 0)
(-0.0270749 0.00567163 0)
(-0.0343125 0.00534857 0)
(-0.0407365 0.00457158 0)
(-0.0457735 0.00333195 0)
(-0.0488713 0.00164898 0)
(-0.0495631 -0.000386473 0)
(-0.047559 -0.00258585 0)
(-0.0428565 -0.00465808 0)
(-0.0358303 -0.00624823 0)
(-0.027257 -0.00701073 0)
(-0.0182545 -0.00671274 0)
(-0.0101049 -0.00534013 0)
(-0.00396765 -0.00317484 0)
(-0.000528418 -0.000845414 0)
(0.000242718 0.000608384 0)
(-0.000276571 0.00167535 0)
(-0.00436605 0.00640537 0)
(-0.0117705 0.0105623 0)
(-0.0214201 0.0133716 0)
(-0.0322906 0.0147908 0)
(-0.0434975 0.0149372 0)
(-0.0542061 0.0138981 0)
(-0.0636075 0.0116974 0)
(-0.0709079 0.00834999 0)
(-0.0753623 0.00395078 0)
(-0.0763566 -0.00124141 0)
(-0.0735195 -0.00675386 0)
(-0.0668487 -0.0119076 0)
(-0.0568176 -0.0158936 0)
(-0.0444209 -0.0179291 0)
(-0.0311217 -0.0174785 0)
(-0.0186553 -0.0144888 0)
(-0.00867537 -0.00956561 0)
(-0.00231699 -0.00402923 0)
(8.81006e-05 5.89947e-05 0)
(-0.000529029 0.00452662 0)
(-0.00664572 0.0135537 0)
(-0.01696 0.0207246 0)
(-0.0299024 0.025379 0)
(-0.0441367 0.0275901 0)
(-0.0586055 0.0275654 0)
(-0.0723241 0.0254422 0)
(-0.0843425 0.0212678 0)
(-0.0937299 0.0150955 0)
(-0.0996106 0.00712108 0)
(-0.101247 -0.002194 0)
(-0.0981534 -0.0120515 0)
(-0.0902339 -0.0213189 0)
(-0.0779176 -0.0286446 0)
(-0.062254 -0.0326877 0)
(-0.0449216 -0.0324683 0)
(-0.0280685 -0.0277739 0)
(-0.013924 -0.0194886 0)
(-0.00427318 -0.00967909 0)
(-3.73819e-05 -0.0014597 0)
(-0.000745779 0.00855007 0)
(-0.00869314 0.0231238 0)
(-0.021657 0.0338637 0)
(-0.037578 0.0405379 0)
(-0.0548299 0.0435049 0)
(-0.0722277 0.0431397 0)
(-0.0887032 0.0396562 0)
(-0.103237 0.0331317 0)
(-0.114822 0.0236538 0)
(-0.122484 0.0115078 0)
(-0.125352 -0.00265924 0)
(-0.122758 -0.0177381 0)
(-0.114389 -0.0321333 0)
(-0.100468 -0.0438882 0)
(-0.0819311 -0.0509621 0)
(-0.060559 -0.0517106 0)
(-0.038918 -0.0455154 0)
(-0.0199784 -0.0333696 0)
(-0.00646195 -0.018087 0)
(-0.000142749 -0.00399677 0)
(-0.000924461 0.013592 0)
(-0.0104259 0.0348315 0)
(-0.0256666 0.0496497 0)
(-0.0441632 0.0585095 0)
(-0.0640474 0.0622245 0)
(-0.0840539 0.0614286 0)
(-0.103089 0.0564493 0)
(-0.120125 0.0473954 0)
(-0.13413 0.0343653 0)
(-0.144058 0.0176849 0)
(-0.14889 -0.00188138 0)
(-0.147709 -0.022969 0)
(-0.139861 -0.0435707 0)
(-0.12519 -0.0610842 0)
(-0.104317 -0.0726039 0)
(-0.0789508 -0.07551 0)
(-0.0520261 -0.0683747 0)
(-0.027415 -0.0519664 0)
(-0.00915156 -0.0297907 0)
(-0.000262634 -0.00770448 0)
(-0.00105939 0.0194633 0)
(-0.0117709 0.0483013 0)
(-0.028811 0.0676418 0)
(-0.0493674 0.0788561 0)
(-0.0713942 0.0833662 0)
(-0.0935947 0.0821567 0)
(-0.114905 0.0757104 0)
(-0.134347 0.0641672 0)
(-0.150921 0.0475969 0)
(-0.163549 0.0262902 0)
(-0.171063 0.0010225 0)
(-0.172277 -0.0267201 0)
(-0.166115 -0.0546047 0)
(-0.151863 -0.0794028 0)
(-0.129589 -0.0972011 0)
(-0.100652 -0.104035 0)
(-0.0681476 -0.097085 0)
(-0.0369003 -0.0762997 0)
(-0.0126948 -0.0456449 0)
(-0.000441338 -0.0129114 0)
(-0.00114311 0.0259363 0)
(-0.0126577 0.0630708 0)
(-0.0309173 0.0872843 0)
(-0.0528855 0.101011 0)
(-0.0764063 0.106407 0)
(-0.100198 0.104896 0)
(-0.123276 0.0971633 0)
(-0.144774 0.0833809 0)
(-0.163788 0.0635475 0)
(-0.179276 0.037829 0)
(-0.189994 0.00687694 0)
(-0.194508 -0.0278808 0)
(-0.191294 -0.0639448 0)
(-0.17898 -0.0975791 0)
(-0.156824 -0.123816 0)
(-0.125441 -0.137 0)
(-0.0876545 -0.132186 0)
(-0.0490264 -0.107532 0)
(-0.0174819 -0.0668268 0)
(-0.000733981 -0.0201504 0)
(-0.00117138 0.0327485 0)
(-0.0130391 0.0785979 0)
(-0.0318527 0.107903 0)
(-0.0544485 0.124245 0)
(-0.0786194 0.130616 0)
(-0.103138 0.128963 0)
(-0.127148 0.120223 0)
(-0.149953 0.104617 0)
(-0.170824 0.0820415 0)
(-0.188855 0.0524537 0)
(-0.202845 0.0162385 0)
(-0.211235 -0.0254232 0)
(-0.21214 -0.0701176 0)
(-0.203522 -0.113857 0)
(-0.183632 -0.150756 0)
(-0.151891 -0.173284 0)
(-0.110167 -0.173605 0)
(-0.0641247 -0.146687 0)
(-0.0239167 -0.0947578 0)
(-0.00121639 -0.0301769 0)
(-0.00115073 0.0396242 0)
(-0.0129308 0.0942919 0)
(-0.0315923 0.128723 0)
(-0.0539186 0.147664 0)
(-0.0776967 0.155019 0)
(-0.101788 0.153342 0)
(-0.125505 0.143888 0)
(-0.148381 0.126961 0)
(-0.169951 0.10235 0)
(-0.189566 0.0697543 0)
(-0.206241 0.0291745 0)
(-0.218482 -0.018657 0)
(-0.224267 -0.0716878 0)
(-0.221044 -0.126105 0)
(-0.20601 -0.175491 0)
(-0.177015 -0.210591 0)
(-0.134139 -0.220127 0)
(-0.0819925 -0.194169 0)
(-0.0323741 -0.130913 0)
(-0.00200203 -0.0439846 0)
(-0.00110887 0.0463243 0)
(-0.0124636 0.109582 0)
(-0.0303098 0.148921 0)
(-0.0514152 0.170229 0)
(-0.0735922 0.1784 0)
(-0.0958323 0.176677 0)
(-0.117663 0.166711 0)
(-0.138904 0.148947 0)
(-0.159433 0.123104 0)
(-0.17899 0.0886195 0)
(-0.196986 0.0450665 0)
(-0.212214 -0.00740289 0)
(-0.222873 -0.0675884 0)
(-0.226238 -0.132148 0)
(-0.218629 -0.194845 0)
(-0.196202 -0.245326 0)
(-0.156495 -0.268881 0)
(-0.101511 -0.249103 0)
(-0.0430932 -0.176455 0)
(-0.00326463 -0.0628062 0)
(-0.0011098 0.0527311 0)
(-0.0119511 0.124029 0)
(-0.0284779 0.167715 0)
(-0.047441 0.190825 0)
(-0.0667093 0.199349 0)
(-0.0854773 0.197318 0)
(-0.103552 0.186855 0)
(-0.121097 0.168617 0)
(-0.138394 0.142312 0)
(-0.155652 0.107171 0)
(-0.172809 0.0623413 0)
(-0.189378 0.00730496 0)
(-0.203961 -0.057672 0)
(-0.214008 -0.130368 0)
(-0.215664 -0.205546 0)
(-0.203639 -0.272881 0)
(-0.17256 -0.315105 0)
(-0.120234 -0.308575 0)
(-0.0559493 -0.231613 0)
(-0.00525936 -0.0880638 0)
(-0.00128026 0.0589817 0)
(-0.0119791 0.137479 0)
(-0.0269687 0.184478 0)
(-0.042977 0.208338 0)
(-0.0579906 0.216352 0)
(-0.0715562 0.213437 0)
(-0.0838713 0.202249 0)
(-0.0955076 0.183708 0)
(-0.107193 0.157585 0)
(-0.11965 0.122983 0)
(-0.133434 0.0787073 0)
(-0.148748 0.0236018 0)
(-0.165054 -0.0429281 0)
(-0.180632 -0.120297 0)
(-0.191988 -0.205063 0)
(-0.193235 -0.288421 0)
(-0.176442 -0.352441 0)
(-0.134146 -0.367109 0)
(-0.070065 -0.294812 0)
(-0.00831917 -0.1212 0)
(-0.00185824 0.0656744 0)
(-0.0135325 0.150241 0)
(-0.0271319 0.198827 0)
(-0.0394787 0.221706 0)
(-0.0488337 0.227843 0)
(-0.0553804 0.223132 0)
(-0.0598851 0.210757 0)
(-0.0634122 0.191902 0)
(-0.067146 0.166434 0)
(-0.072293 0.133416 0)
(-0.0799876 0.0914551 0)
(-0.0911587 0.0389446 0)
(-0.106245 -0.025613 0)
(-0.124728 -0.103121 0)
(-0.144332 -0.192526 0)
(-0.159785 -0.288076 0)
(-0.161849 -0.373921 0)
(-0.137772 -0.41673 0)
(-0.0832842 -0.361705 0)
(-0.0127772 -0.16331 0)
(-0.00329628 0.0742303 0)
(-0.0181733 0.163291 0)
(-0.0307601 0.210647 0)
(-0.0385923 0.22987 0)
(-0.0405837 0.232176 0)
(-0.0380474 0.224448 0)
(-0.0325772 0.210273 0)
(-0.025827 0.190984 0)
(-0.0194247 0.166502 0)
(-0.0149781 0.135893 0)
(-0.01408 0.0976862 0)
(-0.018269 0.0500536 0)
(-0.028894 -0.0090559 0)
(-0.0467671 -0.0817332 0)
(-0.0714473 -0.169298 0)
(-0.0996269 -0.270094 0)
(-0.122875 -0.373392 0)
(-0.124541 -0.447793 0)
(-0.0916068 -0.424355 0)
(-0.0187127 -0.214416 0)
(-0.00637309 0.0873442 0)
(-0.0281059 0.178067 0)
(-0.0394955 0.219556 0)
(-0.0409208 0.23121 0)
(-0.0327879 0.227175 0)
(-0.0183241 0.215076 0)
(-0.000261818 0.198538 0)
(0.0190809 0.178777 0)
(0.0376893 0.155632 0)
(0.0536831 0.128143 0)
(0.0651845 0.0948571 0)
(0.0702529 0.053942 0)
(0.0668495 0.00320702 0)
(0.0530129 -0.0600218 0)
(0.0272113 -0.138747 0)
(-0.0101531 -0.235428 0)
(-0.0540627 -0.346837 0)
(-0.0868087 -0.45013 0)
(-0.0886024 -0.470646 0)
(-0.0253128 -0.272131 0)
(-0.0125302 0.110605 0)
(-0.0452958 0.196617 0)
(-0.0516376 0.224352 0)
(-0.0411823 0.222866 0)
(-0.0174628 0.209558 0)
(0.0134027 0.191943 0)
(0.0474135 0.17291 0)
(0.0817316 0.15307 0)
(0.114183 0.131932 0)
(0.142858 0.108438 0)
(0.165839 0.0811961 0)
(0.181049 0.0485455 0)
(0.186061 0.00850882 0)
(0.178199 -0.0415062 0)
(0.15438 -0.105027 0)
(0.112146 -0.187354 0)
(0.050951 -0.29325 0)
(-0.0144914 -0.414389 0)
(-0.0644195 -0.485012 0)
(-0.0296004 -0.330375 0)
(-0.0216095 0.148443 0)
(-0.0652626 0.213107 0)
(-0.0495011 0.214986 0)
(-0.0132346 0.194951 0)
(0.0355821 0.171448 0)
(0.0883333 0.14944 0)
(0.140796 0.129712 0)
(0.190533 0.111667 0)
(0.235913 0.0942738 0)
(0.275519 0.0763581 0)
(0.307804 0.0566753 0)
(0.330924 0.0338892 0)
(0.342434 0.00647007 0)
(0.339515 -0.0275401 0)
(0.318247 -0.0711309 0)
(0.274441 -0.130188 0)
(0.202004 -0.214941 0)
(0.10782 -0.334939 0)
(-0.00327146 -0.451423 0)
(-0.0232759 -0.378698 0)
(-0.0274648 0.229362 0)
(-0.0364803 0.223138 0)
(0.0465485 0.176935 0)
(0.12698 0.138691 0)
(0.20546 0.10943 0)
(0.277267 0.0878008 0)
(0.341497 0.0715128 0)
(0.398136 0.0585369 0)
(0.447242 0.047368 0)
(0.488575 0.0368545 0)
(0.521434 0.0260428 0)
(0.544604 0.0140725 0)
(0.55613 6.2728e-05 0)
(0.553678 -0.0169802 0)
(0.533212 -0.0390409 0)
(0.490483 -0.0704246 0)
(0.415249 -0.12092 0)
(0.304853 -0.213373 0)
(0.125849 -0.348316 0)
(0.0236597 -0.378785 0)
(0.214448 0.135805 0)
(0.285162 0.0984592 0)
(0.444683 0.0569194 0)
(0.547924 0.0365818 0)
(0.621639 0.0241625 0)
(0.678183 0.0163126 0)
(0.722717 0.011329 0)
(0.758277 0.00800302 0)
(0.7867 0.00557352 0)
(0.808882 0.0035755 0)
(0.825008 0.00170147 0)
(0.834747 -0.000262263 0)
(0.837229 -0.00249945 0)
(0.83114 -0.0050446 0)
(0.813525 -0.00849793 0)
(0.781938 -0.0135042 0)
(0.724085 -0.0231784 0)
(0.63528 -0.0406044 0)
(0.431311 -0.0912975 0)
(0.270899 -0.153524 0)
)
;

boundaryField
{
    movingWall
    {
        type            calculated;
        value           uniform (1 0 0);
    }
    fixedWalls
    {
        type            calculated;
        value           uniform (0 0 0);
    }
    frontAndBack
    {
        type            empty;
    }
}


// ************************************************************************* //
