/*--------------------------------*- C++ -*----------------------------------*\
  =========                 |
  \\      /  F ield         | OpenFOAM: The Open Source CFD Toolbox
   \\    /   O peration     | Website:  https://openfoam.org
    \\  /    A nd           | Version:  13
     \\/     M anipulation  |
\*---------------------------------------------------------------------------*/
FoamFile
{
    format      ascii;
    class       volScalarField;
    location    "15";
    object      p;
}
// * * * * * * * * * * * * * * * * * * * * * * * * * * * * * * * * * * * * * //

dimensions      [0 2 -2 0 0 0 0];

internalField   nonuniform List<scalar> 
400
(
-9.25213e-07
-0.000572097
-0.00121346
-0.00171396
-0.00195204
-0.00187551
-0.00145971
-0.000693742
0.000413414
0.00181774
0.00342564
0.00508499
0.00660035
0.00776046
0.00839021
0.00840808
0.00787045
0.00698678
0.00606771
0.00551483
0.000567538
-2.12562e-05
-0.000568737
-0.000954009
-0.00112686
-0.00105474
-0.000716855
-9.86194e-05
0.00080036
0.00195141
0.00328162
0.00467158
0.0059519
0.00694128
0.00748674
0.00751608
0.00707578
0.00633769
0.00556372
0.00499388
0.0012411
0.000490352
-8.73949e-05
-0.000440002
-0.000602561
-0.000570334
-0.000328966
0.000143017
0.000861759
0.00181997
0.00296833
0.00420527
0.00537783
0.00630748
0.00683382
0.00686908
0.00643902
0.00568861
0.00483106
0.00406032
0.00173392
0.000759583
7.17988e-05
-0.000321577
-0.000534179
-0.000586865
-0.000469278
-0.000148285
0.000414314
0.00123802
0.00229842
0.00350973
0.00471837
0.00572636
0.00633655
0.0064166
0.00595389
0.00507314
0.00397297
0.0028705
0.00178772
0.000591052
-0.000229765
-0.000704292
-0.00101443
-0.00119975
-0.00124778
-0.00110744
-0.00071156
-6.50275e-06
0.00101425
0.00228624
0.00365213
0.00488261
0.0057198
0.00595404
0.00550362
0.00446085
0.00302761
0.00149184
0.00118763
-0.000206688
-0.00116399
-0.00175028
-0.00220496
-0.0025793
-0.00285249
-0.00294912
-0.00276528
-0.00220303
-0.00121277
0.000182121
0.00182331
0.00344857
0.00471741
0.00530125
0.00499901
0.00383454
0.00201039
-7.00276e-05
-0.000245683
-0.00180069
-0.0028896
-0.00361579
-0.00426618
-0.00489881
-0.00548025
-0.00590579
-0.00602681
-0.00568631
-0.00476227
-0.00324072
-0.00122782
0.0009861
0.0029623
0.00420327
0.00431164
0.00316875
0.000938215
-0.00181753
-0.00265047
-0.00432163
-0.0055331
-0.00642664
-0.00732819
-0.00830096
-0.00929835
-0.0101845
-0.0107593
-0.0107929
-0.0100729
-0.00847821
-0.00604891
-0.00305873
-3.85179e-05
0.00229776
0.00325194
0.00243369
-0.000137175
-0.00370938
-0.00611203
-0.00784963
-0.00916918
-0.0102511
-0.0114548
-0.0128517
-0.0143863
-0.0158942
-0.0171216
-0.0177526
-0.0174565
-0.0159635
-0.013177
-0.00928736
-0.00487373
-0.000887168
0.00155586
0.00159899
-0.00109229
-0.00559869
-0.0106526
-0.0124028
-0.0138033
-0.0150722
-0.0166039
-0.0184867
-0.020666
-0.0229572
-0.0250564
-0.0265572
-0.026988
-0.0258802
-0.0229405
-0.0181672
-0.0120905
-0.00585549
-0.0010852
0.000653736
-0.0016823
-0.00714356
-0.0162313
-0.0179352
-0.0193627
-0.0207673
-0.0225936
-0.0249639
-0.0278387
-0.0310256
-0.03418
-0.0368078
-0.0382841
-0.0378883
-0.0351754
-0.0297333
-0.0219157
-0.0129292
-0.00489445
-0.000319369
-0.00146399
-0.00766764
-0.0227638
-0.0243511
-0.0257017
-0.0271021
-0.0290882
-0.0318435
-0.0353618
-0.0394554
-0.0437492
-0.0476706
-0.0504624
-0.0512666
-0.0490515
-0.0432896
-0.033895
-0.0218958
-0.00973638
-0.000965869
0.000332541
-0.00594871
-0.030175
-0.0315404
-0.0326229
-0.033741
-0.035609
-0.0385095
-0.0424854
-0.0473583
-0.0527265
-0.0579474
-0.0621329
-0.0641955
-0.0629136
-0.0572328
-0.0466044
-0.0316276
-0.0147347
-0.000360727
0.00501457
6.81368e-05
-0.0385068
-0.0394393
-0.039912
-0.0402751
-0.0415766
-0.044241
-0.0483645
-0.0537658
-0.0600022
-0.0663559
-0.0718195
-0.0751167
-0.0747746
-0.0693371
-0.0577342
-0.0399396
-0.0179693
0.00332604
0.0147387
0.0135905
-0.0481195
-0.0481061
-0.0473556
-0.0462361
-0.0463595
-0.0483096
-0.052208
-0.0578275
-0.0646443
-0.0718357
-0.0782624
-0.0824706
-0.0827536
-0.0773095
-0.0645944
-0.0438967
-0.01651
0.0130481
0.0329565
0.0393009
-0.0601821
-0.0579104
-0.0548252
-0.051174
-0.0493851
-0.0501281
-0.0534581
-0.059019
-0.0661358
-0.0738302
-0.0807936
-0.085377
-0.085645
-0.079475
-0.0649133
-0.0405948
-0.00696937
0.0328243
0.0648004
0.0836803
-0.0774361
-0.0694343
-0.0620561
-0.054523
-0.0501111
-0.0492887
-0.0518554
-0.0571984
-0.0644131
-0.0723072
-0.0793649
-0.0837135
-0.0831695
-0.0752531
-0.05761
-0.0282144
0.0133404
0.0666487
0.11574
0.154795
-0.108892
-0.0850132
-0.0697559
-0.0563803
-0.0485283
-0.045859
-0.0475879
-0.0526638
-0.0598542
-0.0677084
-0.0744858
-0.0780833
-0.0760633
-0.0655212
-0.0436413
-0.00745906
0.0447193
0.114906
0.188053
0.263256
-0.168671
-0.100729
-0.0730868
-0.0522883
-0.0413086
-0.0376882
-0.0394156
-0.0448233
-0.052361
-0.0603855
-0.0670134
-0.0699959
-0.0666511
-0.0537693
-0.0278895
0.0153942
0.0800452
0.172729
0.285823
0.445956
-0.402732
-0.139016
-0.0734559
-0.0447344
-0.030575
-0.0266115
-0.029065
-0.0353373
-0.0436047
-0.0521503
-0.0590663
-0.0620944
-0.0585786
-0.0451927
-0.0174473
0.0310668
0.108473
0.236629
0.427458
0.793652
)
;

boundaryField
{
    movingWall
    {
        type            zeroGradient;
    }
    fixedWalls
    {
        type            zeroGradient;
    }
    frontAndBack
    {
        type            empty;
    }
}


// ************************************************************************* //
