/*--------------------------------*- C++ -*----------------------------------*\
  =========                 |
  \\      /  F ield         | OpenFOAM: The Open Source CFD Toolbox
   \\    /   O peration     | Website:  https://openfoam.org
    \\  /    A nd           | Version:  13
     \\/     M anipulation  |
\*---------------------------------------------------------------------------*/
FoamFile
{
    format      ascii;
    class       surfaceScalarField;
    location    "15";
    object      phi;
}
// * * * * * * * * * * * * * * * * * * * * * * * * * * * * * * * * * * * * * //

dimensions      [0 3 -1 0 0 0 0];

internalField   nonuniform List<scalar> 
760
(
4.35428e-06
-4.34463e-06
-3.89671e-05
4.33211e-05
-0.000130992
9.20252e-05
-0.000256186
0.000125194
-0.000398805
0.000142619
-0.000545425
0.00014662
-0.000684135
0.00013871
-0.000803201
0.000119065
-0.000890495
8.72938e-05
-0.000934198
4.37029e-05
-0.000924624
-9.57369e-06
-0.000857157
-6.74676e-05
-0.000734832
-0.000122325
-0.000570355
-0.000164477
-0.000385884
-0.000184471
-0.000209998
-0.000175886
-7.17559e-05
-0.000138242
7.38265e-06
-7.91386e-05
2.35144e-05
-1.61319e-05
2.35144e-05
-4.70041e-05
4.26592e-05
-0.000209616
0.000205933
-0.000472856
0.000355266
-0.000804381
0.000456718
-0.00117036
0.000508598
-0.00153941
0.000515666
-0.0018821
0.000481407
-0.00216966
0.000406618
-0.00237382
0.000291462
-0.00246896
0.000138839
-0.00243612
-4.24111e-05
-0.00226773
-0.000235865
-0.00197315
-0.000416902
-0.00158124
-0.000556388
-0.00113965
-0.00062606
-0.00070881
-0.000606725
-0.000350233
-0.000496819
-0.000110669
-0.000318703
-5.74491e-06
-0.000121055
1.77695e-05
-0.000111206
0.000153865
-0.000404409
0.000499136
-0.000832862
0.000783719
-0.00134733
0.000971183
-0.00190103
0.0010623
-0.00245062
0.00106526
-0.00295492
0.000985703
-0.00337375
0.000825446
-0.00366851
0.000586229
-0.0038051
0.000275423
-0.00375877
-8.87432e-05
-0.00352005
-0.000474578
-0.00310073
-0.000836225
-0.00253761
-0.00111951
-0.00189245
-0.00127121
-0.00124573
-0.00125345
-0.000682784
-0.00105977
-0.000273699
-0.000727788
-5.21195e-05
-0.000342635
-3.43499e-05
-0.000172747
0.000326612
-0.000592264
0.000918653
-0.00117664
0.0013681
-0.00185774
0.00165228
-0.00257746
0.00178203
-0.00328417
0.00177197
-0.00392938
0.00163091
-0.00446595
0.00136201
-0.00484861
0.00096889
-0.0050369
0.000463719
-0.00500017
-0.00012547
-0.00472374
-0.000751016
-0.00421588
-0.00134408
-0.00351363
-0.00182176
-0.00268548
-0.00209937
-0.00182762
-0.0021113
-0.00105034
-0.00183705
-0.000454101
-0.00132402
-0.000101884
-0.000694851
-0.000136234
-0.000227723
0.000554335
-0.000761813
0.00145274
-0.0014876
0.00209389
-0.0023187
0.00248338
-0.00318731
0.00265063
-0.00403632
0.00262098
-0.00481342
0.00240801
-0.00546786
0.00201645
-0.00595005
0.00145108
-0.00621373
0.000727399
-0.00622042
-0.000118776
-0.00594538
-0.00102606
-0.00538626
-0.00190319
-0.004572
-0.00263603
-0.00357068
-0.00310069
-0.00249146
-0.00319052
-0.00147386
-0.00285465
-0.000660164
-0.00213772
-0.000156428
-0.00119859
-0.000292662
-0.00027411
0.000828445
-0.000906054
0.00208469
-0.00175359
0.00294142
-0.0027148
0.00344458
-0.00371446
0.00365029
-0.00469266
0.00359918
-0.00559626
0.00331161
-0.00637371
0.00279391
-0.00697309
0.00205045
-0.00734258
0.00109689
-0.00743409
-2.72646e-05
-0.00720774
-0.00125242
-0.00664335
-0.00246758
-0.0057522
-0.00352718
-0.00459254
-0.00426035
-0.00328077
-0.00450229
-0.00198841
-0.00414701
-0.000912998
-0.00321314
-0.000222991
-0.0018886
-0.000515653
-0.000310006
0.00113845
-0.00101865
0.00279334
-0.00196278
0.00388555
-0.00302875
0.00451055
-0.00413663
0.00475817
-0.00522634
0.00468889
-0.00624674
0.00433201
-0.00714839
0.00369555
-0.00787934
0.0027814
-0.0083837
0.00160126
-0.00860222
0.000191255
-0.00847873
-0.00137592
-0.00796777
-0.00297853
-0.00705289
-0.00444206
-0.00576931
-0.00554393
-0.00422839
-0.0060432
-0.00262969
-0.00574571
-0.00123806
-0.00460476
-0.000311034
-0.00281563
-0.000826687
-0.000333506
0.00147196
-0.00109349
0.00355332
-0.00210317
0.00489524
-0.00324126
0.00564865
-0.00442583
0.00594274
-0.00559909
0.00586214
-0.00671468
0.0054476
-0.00772835
0.00470923
-0.00859156
0.00364461
-0.00924739
0.00225709
-0.00962899
0.00057285
-0.00966241
-0.00134249
-0.00927489
-0.00336605
-0.00841288
-0.00530408
-0.00707223
-0.00688458
-0.00533824
-0.00777719
-0.00342213
-0.00766183
-0.00165996
-0.00636693
-0.000431109
-0.00404448
-0.0012578
-0.00034336
0.00181532
-0.00112604
0.004336
-0.00216471
0.00593391
-0.00333403
0.00681797
-0.00455239
0.0071611
-0.00576647
0.00707622
-0.00693738
0.00661851
-0.00802955
0.0058014
-0.00900229
0.00461735
-0.00980322
0.00305802
-0.0103637
0.00113335
-0.0105978
-0.00110845
-0.0104072
-0.00355665
-0.00969629
-0.00601495
-0.00840547
-0.00817539
-0.00656524
-0.00961741
-0.00436507
-0.009862
-0.00219733
-0.00853467
-0.000594573
-0.00564724
-0.00185237
-0.000340109
0.00215542
-0.00111612
0.00511201
-0.00214349
0.00696127
-0.00329535
0.00796983
-0.00449233
0.00835809
-0.00568757
0.00827146
-0.00685213
0.00778306
-0.00796275
0.00691202
-0.00899183
0.00564643
-0.00989886
0.00396505
-0.0106228
0.00185728
-0.0110755
-0.000655756
-0.0111434
-0.00348875
-0.0106914
-0.00646695
-0.00959393
-0.00927285
-0.00779612
-0.0114152
-0.00541552
-0.0122426
-0.00285518
-0.011095
-0.000813193
-0.00768923
-0.00266556
-0.000327648
0.00248307
-0.00107143
0.00585579
-0.00204704
0.00793688
-0.00312729
0.00905008
-0.00423694
0.00946774
-0.00533777
0.00937229
-0.00641336
0.00885865
-0.00745619
0.00795485
-0.00845688
0.00664713
-0.00939442
0.00490258
-0.0102268
0.00268966
-0.0108746
-8.00335e-06
-0.0112312
-0.00313215
-0.0111319
-0.00656623
-0.0103885
-0.0100163
-0.0088386
-0.0129651
-0.00646957
-0.0146116
-0.00361268
-0.0139519
-0.00109761
-0.0102043
-0.00376317
-0.000315277
0.00279835
-0.00101172
0.00655224
-0.00190016
0.00882533
-0.00285288
0.0100028
-0.00380186
0.0104167
-0.00472097
0.0102914
-0.00560936
0.00974704
-0.00647816
0.00882365
-0.00733994
0.00750891
-0.00819907
0.00576171
-0.00904057
0.00353117
-0.00982285
0.000774274
-0.0104425
-0.00251249
-0.0107447
-0.00626409
-0.0104974
-0.0102635
-0.00942969
-0.0140328
-0.00734978
-0.0166915
-0.00440668
-0.016895
-0.00145329
-0.0131577
-0.00521647
-0.000320707
0.00311906
-0.000973599
0.00720513
-0.00174972
0.00960144
-0.00252059
0.0107737
-0.00323185
0.011128
-0.00387587
0.0109354
-0.00447176
0.0103429
-0.00505193
0.00940381
-0.0056528
0.00810978
-0.00630679
0.0064157
-0.00703302
0.0042574
-0.00782492
0.00156618
-0.00862655
-0.00171085
-0.00930987
-0.00558077
-0.00964044
-0.0099329
-0.00926877
-0.0144045
-0.00780843
-0.0181519
-0.00511462
-0.0195888
-0.0018722
-0.0164001
-0.00708867
-0.000374871
0.00349393
-0.00101558
0.00784584
-0.00166655
0.0102524
-0.00220214
0.0113093
-0.00259501
0.0115208
-0.00286729
0.0112077
-0.00306458
0.0105402
-0.0032429
0.00958213
-0.00346204
0.00832892
-0.00378079
0.00673445
-0.00425108
0.0047277
-0.00490814
0.00222323
-0.00575119
-0.000867807
-0.00671257
-0.00461939
-0.00760608
-0.00903938
-0.0080671
-0.0139435
-0.00755002
-0.018669
-0.00554364
-0.0215952
-0.00231887
-0.0196249
-0.00940754
-0.000530413
0.00402434
-0.00122161
0.00853703
-0.00173743
0.0107682
-0.00197252
0.0115443
-0.00195264
0.011501
-0.00174756
0.0110026
-0.00143816
0.0102308
-0.00110615
0.00925013
-0.000832335
0.0080551
-0.000696801
0.00659892
-0.000777931
0.00480883
-0.00114837
0.00259366
-0.00186369
-0.000152484
-0.00293503
-0.00354805
-0.00427315
-0.00770126
-0.00558435
-0.0126323
-0.00625978
-0.0179935
-0.00542812
-0.0224269
-0.00270968
-0.0223433
-0.0121172
-0.000869725
0.00489407
-0.0016872
0.00935451
-0.00201905
0.0111001
-0.00183542
0.0113607
-0.00126279
0.0109283
-0.000444097
0.0101839
0.000495018
0.00929169
0.001447
0.00829814
0.0023146
0.0071875
0.00300389
0.00590963
0.00341912
0.0043936
0.00346065
0.00255213
0.00302681
0.000281366
0.00202986
-0.00255111
0.000435845
-0.00610724
-0.00161673
-0.0105797
-0.00360585
-0.0160044
-0.00441811
-0.0216146
-0.00288168
-0.0238797
-0.0149989
-0.00149553
0.0063896
-0.00241381
0.0102728
-0.00233587
0.0110221
-0.00145841
0.0104833
-8.57338e-05
0.00955566
0.00154189
0.00855631
0.00325408
0.0075795
0.00492635
0.00662587
0.00645691
0.00565695
0.00775017
0.00461638
0.00870588
0.00343788
0.00921187
0.00204615
0.0091378
0.000355434
0.00834145
-0.00175476
0.00667656
-0.00444235
0.00408306
-0.00798622
0.000836542
-0.0127579
-0.00200779
-0.0187703
-0.00250387
-0.0233836
-0.0175028
-0.00234131
0.00873091
-0.00282127
0.0107528
-0.00158847
0.00978934
0.000568773
0.00832602
0.00311419
0.00701024
0.00574909
0.00592142
0.00830736
0.00502123
0.010688
0.0042452
0.0128151
0.00352989
0.0146145
0.00281699
0.0160008
0.00205153
0.0168682
0.00117875
0.0170804
0.000143269
0.0164748
-0.00114917
0.014837
-0.00280452
0.0119315
-0.0050808
0.00764686
-0.00847322
0.00261007
-0.0137335
-0.000909376
-0.0198642
-0.0184121
-0.00200241
0.0107333
0.000357695
0.00839265
0.00431824
0.0058288
0.00833179
0.00431246
0.0120881
0.00325389
0.0154889
0.00252066
0.0185117
0.00199844
0.0211573
0.00159961
0.0234205
0.00126663
0.0252778
0.000959751
0.0266807
0.000648598
0.0275505
0.000308978
0.0277775
-8.3739e-05
0.0272096
-0.000581268
0.0256249
-0.00121985
0.0226939
-0.00214982
0.0179498
-0.00372912
0.0109491
-0.0067328
0.00302423
-0.0119393
-0.0153879
0.0107333
0.019126
0.0249548
0.0292672
0.0325211
0.0350418
0.0370402
0.0386398
0.0399065
0.0408662
0.0415148
0.0418238
0.0417401
0.0411588
0.0399389
0.0377891
0.03406
0.0273272
0.0153879
)
;

boundaryField
{
    movingWall
    {
        type            calculated;
        value           uniform 0;
    }
    fixedWalls
    {
        type            calculated;
        value           uniform 0;
    }
    frontAndBack
    {
        type            empty;
    }
}


// ************************************************************************* //
