/*--------------------------------*- C++ -*----------------------------------*\
  =========                 |
  \\      /  F ield         | OpenFOAM: The Open Source CFD Toolbox
   \\    /   O peration     | Website:  https://openfoam.org
    \\  /    A nd           | Version:  13
     \\/     M anipulation  |
\*---------------------------------------------------------------------------*/
FoamFile
{
    format      ascii;
    class       surfaceScalarField;
    location    "15";
    object      phi_0;
}
// * * * * * * * * * * * * * * * * * * * * * * * * * * * * * * * * * * * * * //

dimensions      [0 3 -1 0 0 0 0];

internalField   nonuniform List<scalar> 
760
(
4.3549e-06
-4.34354e-06
-3.89664e-05
4.33214e-05
-0.000130991
9.20246e-05
-0.000256184
0.000125193
-0.000398802
0.000142618
-0.00054542
0.000146618
-0.000684129
0.000138709
-0.000803194
0.000119064
-0.000890487
8.72931e-05
-0.00093419
4.37027e-05
-0.000924617
-9.57325e-06
-0.00085715
-6.74665e-05
-0.000734827
-0.000122323
-0.000570351
-0.000164475
-0.000385882
-0.00018447
-0.000209998
-0.000175884
-7.17564e-05
-0.000138241
7.38197e-06
-7.91384e-05
2.35141e-05
-1.61321e-05
2.35141e-05
-4.70033e-05
4.26597e-05
-0.000209614
0.000205932
-0.000472852
0.000355263
-0.000804373
0.000456714
-0.00117035
0.000508593
-0.00153939
0.000515661
-0.00188209
0.000481403
-0.00216964
0.000406615
-0.0023738
0.00029146
-0.00246894
0.000138838
-0.0024361
-4.24096e-05
-0.00226771
-0.000235861
-0.00197313
-0.000416897
-0.00158123
-0.000556382
-0.00113964
-0.000626054
-0.000708807
-0.00060672
-0.000350232
-0.000496816
-0.000110669
-0.000318702
-5.74525e-06
-0.000121056
1.77688e-05
-0.000111204
0.000153864
-0.000404405
0.000499132
-0.000832853
0.000783711
-0.00134731
0.000971173
-0.00190101
0.00106229
-0.0024506
0.00106525
-0.00295489
0.000985694
-0.00337371
0.000825439
-0.00366848
0.000586225
-0.00380506
0.000275423
-0.00375873
-8.87396e-05
-0.00352002
-0.000474571
-0.00310071
-0.000836216
-0.00253759
-0.0011195
-0.00189244
-0.0012712
-0.00124572
-0.00125344
-0.000682781
-0.00105976
-0.000273698
-0.000727785
-5.21195e-05
-0.000342634
-3.43507e-05
-0.000172745
0.000326609
-0.000592257
0.000918643
-0.00117663
0.00136808
-0.00185772
0.00165226
-0.00257743
0.00178201
-0.00328414
0.00177195
-0.00392934
0.00163089
-0.0044659
0.001362
-0.00484856
0.000968884
-0.00503686
0.000463718
-0.00500013
-0.000125465
-0.0047237
-0.000751005
-0.00421585
-0.00134406
-0.00351361
-0.00182174
-0.00268546
-0.00209935
-0.00182761
-0.00211129
-0.00105033
-0.00183704
-0.000454098
-0.00132402
-0.000101884
-0.000694849
-0.000136235
-0.00022772
0.000554329
-0.000761804
0.00145273
-0.00148759
0.00209386
-0.00231867
0.00248335
-0.00318727
0.00265061
-0.00403628
0.00262095
-0.00481337
0.00240799
-0.00546781
0.00201644
-0.00595
0.00145107
-0.00621368
0.000727399
-0.00622037
-0.000118768
-0.00594533
-0.00102605
-0.00538623
-0.00190317
-0.00457197
-0.002636
-0.00357065
-0.00310066
-0.00249144
-0.00319049
-0.00147386
-0.00285463
-0.000660161
-0.00213771
-0.000156427
-0.00119858
-0.000292661
-0.000274107
0.000828436
-0.000906044
0.00208466
-0.00175357
0.00294139
-0.00271477
0.00344455
-0.00371442
0.00365026
-0.00469262
0.00359915
-0.00559621
0.00331158
-0.00637366
0.00279389
-0.00697303
0.00205044
-0.00734252
0.00109689
-0.00743404
-2.72538e-05
-0.00720769
-0.0012524
-0.0066433
-0.00246755
-0.00575216
-0.00352715
-0.00459251
-0.00426031
-0.00328075
-0.00450225
-0.0019884
-0.00414698
-0.000912993
-0.00321312
-0.00022299
-0.00188859
-0.000515651
-0.000310002
0.00113844
-0.00101864
0.00279331
-0.00196276
0.00388551
-0.00302872
0.00451051
-0.0041366
0.00475813
-0.0052263
0.00468885
-0.00624669
0.00433198
-0.00714833
0.00369553
-0.00787928
0.00278139
-0.00838365
0.00160126
-0.00860217
0.000191268
-0.00847867
-0.00137589
-0.00796773
-0.0029785
-0.00705285
-0.00444202
-0.00576928
-0.00554389
-0.00422837
-0.00604316
-0.00262968
-0.00574568
-0.00123806
-0.00460474
-0.000311032
-0.00281561
-0.000826684
-0.000333503
0.00147194
-0.00109348
0.00355328
-0.00210315
0.00489519
-0.00324124
0.0056486
-0.0044258
0.00594269
-0.00559905
0.00586209
-0.00671463
0.00544756
-0.00772831
0.0047092
-0.00859151
0.0036446
-0.00924734
0.00225709
-0.00962894
0.000572863
-0.00966236
-0.00134247
-0.00927485
-0.00336601
-0.00841284
-0.00530403
-0.00707219
-0.00688453
-0.00533822
-0.00777714
-0.00342211
-0.00766178
-0.00165995
-0.0063669
-0.000431106
-0.00404446
-0.00125779
-0.000343357
0.0018153
-0.00112603
0.00433596
-0.0021647
0.00593385
-0.00333401
0.00681791
-0.00455236
0.00716104
-0.00576644
0.00707617
-0.00693734
0.00661846
-0.00802951
0.00580137
-0.00900225
0.00461733
-0.00980318
0.00305802
-0.0103637
0.00113337
-0.0105977
-0.00110842
-0.0104071
-0.00355661
-0.00969626
-0.0060149
-0.00840545
-0.00817534
-0.00656522
-0.00961736
-0.00436505
-0.00986195
-0.00219733
-0.00853462
-0.00059457
-0.00564721
-0.00185236
-0.000340107
0.00215541
-0.00111612
0.00511197
-0.00214348
0.00696121
-0.00329533
0.00796977
-0.00449231
0.00835802
-0.00568755
0.00827141
-0.00685211
0.00778302
-0.00796272
0.00691199
-0.00899181
0.00564642
-0.00989884
0.00396505
-0.0106228
0.0018573
-0.0110755
-0.000655729
-0.0111434
-0.00348871
-0.0106914
-0.0064669
-0.00959391
-0.0092728
-0.00779611
-0.0114152
-0.00541551
-0.0122425
-0.00285517
-0.011095
-0.00081319
-0.00768919
-0.00266555
-0.000327648
0.00248305
-0.00107143
0.00585575
-0.00204704
0.00793683
-0.00312729
0.00905001
-0.00423694
0.00946768
-0.00533777
0.00937224
-0.00641335
0.0088586
-0.00745618
0.00795482
-0.00845688
0.00664711
-0.00939442
0.00490259
-0.0102268
0.00268968
-0.0108745
-7.97896e-06
-0.0112311
-0.00313211
-0.0111319
-0.00656618
-0.0103885
-0.0100162
-0.00883859
-0.012965
-0.00646956
-0.0146116
-0.00361267
-0.0139518
-0.00109761
-0.0102043
-0.00376316
-0.000315278
0.00279833
-0.00101173
0.0065522
-0.00190017
0.00882527
-0.00285288
0.0100027
-0.00380186
0.0104167
-0.00472098
0.0102914
-0.00560938
0.009747
-0.00647818
0.00882362
-0.00733996
0.0075089
-0.00819909
0.00576171
-0.00904059
0.00353119
-0.00982287
0.000774301
-0.0104425
-0.00251245
-0.0107447
-0.00626405
-0.0104975
-0.0102634
-0.00942969
-0.0140328
-0.00734978
-0.0166915
-0.00440668
-0.016895
-0.00145329
-0.0131576
-0.00521645
-0.00032071
0.00311904
-0.000973606
0.00720509
-0.00174973
0.00960139
-0.00252061
0.0107736
-0.00323187
0.0111279
-0.0038759
0.0109354
-0.00447179
0.0103429
-0.00505196
0.00940379
-0.00565284
0.00810977
-0.00630683
0.0064157
-0.00703306
0.00425742
-0.00782496
0.0015662
-0.00862659
-0.00171082
-0.0093099
-0.00558074
-0.00964046
-0.00993286
-0.00926879
-0.0144045
-0.00780844
-0.0181518
-0.00511462
-0.0195888
-0.0018722
-0.0164001
-0.00708865
-0.000374875
0.00349392
-0.00101559
0.00784581
-0.00166657
0.0102524
-0.00220216
0.0113092
-0.00259504
0.0115208
-0.00286733
0.0112077
-0.00306462
0.0105402
-0.00324294
0.00958211
-0.00346209
0.00832891
-0.00378084
0.00673446
-0.00425114
0.00472772
-0.00490819
0.00222326
-0.00575123
-0.000867777
-0.00671261
-0.00461936
-0.00760612
-0.00903935
-0.00806713
-0.0139435
-0.00755004
-0.0186689
-0.00554365
-0.0215952
-0.00231887
-0.0196248
-0.00940752
-0.000530417
0.00402433
-0.00122162
0.00853701
-0.00173745
0.0107682
-0.00197256
0.0115443
-0.00195268
0.0115009
-0.00174761
0.0110026
-0.00143821
0.0102308
-0.00110621
0.00925011
-0.000832395
0.0080551
-0.000696861
0.00659892
-0.000777989
0.00480884
-0.00114842
0.00259369
-0.00186374
-0.000152458
-0.00293507
-0.00354803
-0.00427319
-0.00770123
-0.00558438
-0.0126323
-0.0062598
-0.0179935
-0.00542813
-0.0224268
-0.00270968
-0.0223433
-0.0121172
-0.00086973
0.00489406
-0.00168722
0.0093545
-0.00201907
0.0111001
-0.00183546
0.0113607
-0.00126284
0.0109283
-0.000444153
0.0101839
0.000494958
0.00929167
0.00144694
0.00829813
0.00231454
0.0071875
0.00300382
0.00590964
0.00341906
0.00439361
0.0034606
0.00255215
0.00302676
0.000281386
0.00202982
-0.00255109
0.000435807
-0.00610722
-0.00161676
-0.0105797
-0.00360587
-0.0160044
-0.00441812
-0.0216146
-0.00288168
-0.0238797
-0.0149989
-0.00149553
0.0063896
-0.00241382
0.0102728
-0.0023359
0.0110221
-0.00145845
0.0104832
-8.57779e-05
0.00955564
0.00154184
0.0085563
0.00325402
0.00757948
0.00492629
0.00662586
0.00645685
0.00565694
0.00775011
0.00461638
0.00870583
0.00343789
0.00921182
0.00204616
0.00913776
0.000355449
0.00834141
-0.00175474
0.00667653
-0.00444234
0.00408303
-0.00798621
0.000836523
-0.0127579
-0.0020078
-0.0187703
-0.00250387
-0.0233836
-0.0175028
-0.00234131
0.00873091
-0.00282128
0.0107528
-0.00158849
0.00978933
0.000568749
0.00832601
0.00311416
0.00701023
0.00574905
0.0059214
0.00830731
0.00502122
0.010688
0.00424519
0.012815
0.00352989
0.0146144
0.00281699
0.0160008
0.00205154
0.0168682
0.00117876
0.0170803
0.000143277
0.0164748
-0.00114916
0.0148369
-0.00280451
0.0119315
-0.00508079
0.00764684
-0.00847322
0.00261007
-0.0137335
-0.000909379
-0.0198642
-0.0184121
-0.00200241
0.0107333
0.000357695
0.00839265
0.00431823
0.0058288
0.00833178
0.00431246
0.0120881
0.00325389
0.0154889
0.00252066
0.0185117
0.00199844
0.0211572
0.00159961
0.0234205
0.00126663
0.0252777
0.000959751
0.0266807
0.0006486
0.0275504
0.000308981
0.0277775
-8.37357e-05
0.0272096
-0.000581265
0.0256249
-0.00121985
0.0226939
-0.00214982
0.0179498
-0.00372911
0.0109491
-0.0067328
0.00302423
-0.0119393
-0.0153879
0.0107333
0.019126
0.0249548
0.0292672
0.0325211
0.0350418
0.0370402
0.0386398
0.0399065
0.0408662
0.0415148
0.0418238
0.04174
0.0411588
0.0399389
0.0377891
0.03406
0.0273272
0.0153879
)
;

boundaryField
{
    movingWall
    {
        type            calculated;
        value           uniform 0;
    }
    fixedWalls
    {
        type            calculated;
        value           uniform 0;
    }
    frontAndBack
    {
        type            empty;
    }
}


// ************************************************************************* //
