/*--------------------------------*- C++ -*----------------------------------*\
  =========                 |
  \\      /  F ield         | OpenFOAM: The Open Source CFD Toolbox
   \\    /   O peration     | Website:  https://openfoam.org
    \\  /    A nd           | Version:  13
     \\/     M anipulation  |
\*---------------------------------------------------------------------------*/
FoamFile
{
    format      ascii;
    class       volVectorField;
    location    "15";
    object      U;
}
// * * * * * * * * * * * * * * * * * * * * * * * * * * * * * * * * * * * * * //

dimensions      [0 1 -1 0 0 0 0];

internalField   nonuniform List<vector> 
400
(
(0.000213024 -0.000213224 0)
(-9.43715e-05 -1.45639e-05 0)
(-0.00151276 0.000202235 0)
(-0.0037575 0.000340149 0)
(-0.00650327 0.000412609 0)
(-0.00945528 0.000440713 0)
(-0.0123645 0.000434981 0)
(-0.0149986 0.000394928 0)
(-0.0171181 0.000314081 0)
(-0.0184776 0.000186898 0)
(-0.0188513 1.57146e-05 0)
(-0.0180837 -0.000186526 0)
(-0.0161486 -0.000387974 0)
(-0.0131999 -0.000546864 0)
(-0.0095934 -0.000619058 0)
(-0.00585639 -0.000572349 0)
(-0.00259612 -0.000400512 0)
(-0.000346881 -0.000134627 0)
(0.00058366 0.000143065 0)
(0.000319514 0.00030636 0)
(2.16763e-06 9.20804e-05 0)
(-0.0020145 0.00187081 0)
(-0.00640458 0.00366088 0)
(-0.0125242 0.00489731 0)
(-0.0196604 0.00555006 0)
(-0.02716 0.00568924 0)
(-0.0344205 0.00536507 0)
(-0.0408637 0.00458516 0)
(-0.0459142 0.00334075 0)
(-0.0490176 0.00165142 0)
(-0.0497062 -0.000391335 0)
(-0.0476897 -0.00259791 0)
(-0.0429668 -0.00467597 0)
(-0.0359148 -0.00626935 0)
(-0.0273138 -0.00703164 0)
(-0.0182857 -0.00672987 0)
(-0.0101162 -0.00535074 0)
(-0.00396741 -0.00317799 0)
(-0.000524799 -0.000842496 0)
(0.000244017 0.000612343 0)
(-0.000277312 0.00167849 0)
(-0.00438068 0.00642375 0)
(-0.0118107 0.0105952 0)
(-0.0214936 0.0134144 0)
(-0.0324009 0.0148384 0)
(-0.0436446 0.0149847 0)
(-0.0543866 0.013941 0)
(-0.0638149 0.011731 0)
(-0.0711329 0.00836993 0)
(-0.0755934 0.00395386 0)
(-0.0765811 -0.00125672 0)
(-0.0737252 -0.00678663 0)
(-0.0670252 -0.0119543 0)
(-0.0569575 -0.0159479 0)
(-0.0445212 -0.0179833 0)
(-0.0311843 -0.0175245 0)
(-0.0186869 -0.0145202 0)
(-0.0086858 -0.00957987 0)
(-0.00231726 -0.00402893 0)
(8.90185e-05 6.44863e-05 0)
(-0.000530972 0.00453997 0)
(-0.00667047 0.0135977 0)
(-0.0170223 0.0207936 0)
(-0.0300104 0.0254634 0)
(-0.0442931 0.0276805 0)
(-0.0588084 0.0276532 0)
(-0.072568 0.025519 0)
(-0.0846181 0.0213258 0)
(-0.0940253 0.015128 0)
(-0.0999118 0.00712318 0)
(-0.101539 -0.00222405 0)
(-0.0984231 -0.0121114 0)
(-0.090469 -0.0214026 0)
(-0.0781092 -0.0287418 0)
(-0.0623976 -0.0327859 0)
(-0.0450178 -0.0325542 0)
(-0.0281232 -0.0278367 0)
(-0.0139476 -0.0195228 0)
(-0.00427855 -0.00968751 0)
(-3.687e-05 -0.00145505 0)
(-0.000748747 0.0085789 0)
(-0.0087264 0.0232036 0)
(-0.0217375 0.03398 0)
(-0.037714 0.0406747 0)
(-0.0550225 0.0436473 0)
(-0.0724734 0.0432747 0)
(-0.0889943 0.0397718 0)
(-0.103562 0.0332167 0)
(-0.115168 0.0236994 0)
(-0.122836 0.011508 0)
(-0.125694 -0.00270619 0)
(-0.123077 -0.0178283 0)
(-0.114672 -0.0322582 0)
(-0.100704 -0.0440341 0)
(-0.082115 -0.0511118 0)
(-0.0606884 -0.0518457 0)
(-0.0389968 -0.0456196 0)
(-0.0200162 -0.0334331 0)
(-0.00647288 -0.018111 0)
(-0.000142638 -0.00399577 0)
(-0.000928101 0.0136402 0)
(-0.0104646 0.0349545 0)
(-0.0257585 0.0498214 0)
(-0.044316 0.0587056 0)
(-0.0642611 0.0624245 0)
(-0.0843233 0.0616146 0)
(-0.103405 0.0566057 0)
(-0.120475 0.0475086 0)
(-0.134502 0.0344246 0)
(-0.144436 0.0176838 0)
(-0.14926 -0.00194397 0)
(-0.148058 -0.0230888 0)
(-0.140176 -0.043737 0)
(-0.125459 -0.0612806 0)
(-0.104533 -0.0728094 0)
(-0.0791098 -0.0757012 0)
(-0.0521279 -0.0685292 0)
(-0.0274671 -0.0520684 0)
(-0.00916833 -0.0298374 0)
(-0.000262959 -0.00771007 0)
(-0.00106322 0.0195329 0)
(-0.0118109 0.0484709 0)
(-0.0289054 0.0678723 0)
(-0.0495231 0.0791142 0)
(-0.0716102 0.0836249 0)
(-0.0938649 0.0823939 0)
(-0.115219 0.0759071 0)
(-0.134694 0.0643078 0)
(-0.151287 0.0476696 0)
(-0.163922 0.0262887 0)
(-0.17143 0.000946261 0)
(-0.172628 -0.0268658 0)
(-0.166437 -0.0548084 0)
(-0.152147 -0.0796465 0)
(-0.129825 -0.0974618 0)
(-0.100832 -0.104285 0)
(-0.068269 -0.0972962 0)
(-0.036966 -0.0764484 0)
(-0.0127175 -0.0457214 0)
(-0.000442196 -0.0129266 0)
(-0.00114656 0.026027 0)
(-0.0126944 0.0632858 0)
(-0.0310041 0.0875715 0)
(-0.0530285 0.101328 0)
(-0.0766037 0.106721 0)
(-0.100443 0.105181 0)
(-0.12356 0.0973964 0)
(-0.145085 0.0835459 0)
(-0.164116 0.0636325 0)
(-0.179608 0.037828 0)
(-0.190323 0.00679021 0)
(-0.194825 -0.0280464 0)
(-0.191592 -0.0641779 0)
(-0.17925 -0.097862 0)
(-0.157058 -0.124125 0)
(-0.125629 -0.137306 0)
(-0.0877878 -0.132456 0)
(-0.0491031 -0.107733 0)
(-0.0175105 -0.0669394 0)
(-0.000735515 -0.0201784 0)
(-0.00117389 0.032857 0)
(-0.0130678 0.0788521 0)
(-0.0319217 0.108239 0)
(-0.054563 0.124613 0)
(-0.0787777 0.130977 0)
(-0.103334 0.129286 0)
(-0.127373 0.120485 0)
(-0.150196 0.104801 0)
(-0.171077 0.0821354 0)
(-0.18911 0.0524531 0)
(-0.203097 0.0161455 0)
(-0.21148 -0.0256003 0)
(-0.212375 -0.070369 0)
(-0.203743 -0.114166 0)
(-0.183833 -0.1511 0)
(-0.152063 -0.173635 0)
(-0.110299 -0.173928 0)
(-0.0642067 -0.146941 0)
(-0.0239501 -0.0949107 0)
(-0.00121876 -0.0302207 0)
(-0.00115184 0.0397451 0)
(-0.0129474 0.0945745 0)
(-0.0316347 0.129096 0)
(-0.0539909 0.14807 0)
(-0.0777973 0.155414 0)
(-0.101912 0.153692 0)
(-0.125645 0.144169 0)
(-0.148529 0.127155 0)
(-0.170099 0.102447 0)
(-0.189711 0.0697523 0)
(-0.206379 0.0290785 0)
(-0.218617 -0.0188355 0)
(-0.224403 -0.0719447 0)
(-0.221179 -0.126422 0)
(-0.206145 -0.17585 0)
(-0.177143 -0.210968 0)
(-0.13425 -0.220487 0)
(-0.0820702 -0.19447 0)
(-0.0324098 -0.131107 0)
(-0.00200537 -0.0440464 0)
(-0.00110829 0.0464502 0)
(-0.0124652 0.109878 0)
(-0.0303189 0.149313 0)
(-0.0514347 0.170655 0)
(-0.0736215 0.178812 0)
(-0.0958677 0.177039 0)
(-0.117699 0.166997 0)
(-0.138935 0.14914 0)
(-0.159455 0.123195 0)
(-0.179001 0.0886092 0)
(-0.196984 0.0449604 0)
(-0.212216 -0.0075973 0)
(-0.222885 -0.0678446 0)
(-0.226258 -0.132457 0)
(-0.218668 -0.195196 0)
(-0.19626 -0.245702 0)
(-0.156563 -0.269256 0)
(-0.101571 -0.249433 0)
(-0.043127 -0.176685 0)
(-0.00326893 -0.0628868 0)
(-0.00110747 0.0528533 0)
(-0.0119363 0.124321 0)
(-0.0284502 0.168105 0)
(-0.0474021 0.19125 0)
(-0.0666599 0.199759 0)
(-0.0854161 0.197675 0)
(-0.103477 0.187132 0)
(-0.121006 0.168797 0)
(-0.138286 0.14239 0)
(-0.15553 0.107149 0)
(-0.172681 0.0622291 0)
(-0.189241 0.00711364 0)
(-0.203826 -0.0579142 0)
(-0.2139 -0.130654 0)
(-0.215589 -0.205866 0)
(-0.203604 -0.273228 0)
(-0.172565 -0.315463 0)
(-0.120261 -0.308911 0)
(-0.0559747 -0.231865 0)
(-0.00526434 -0.0881615 0)
(-0.00127632 0.0590914 0)
(-0.0119482 0.13775 0)
(-0.0269043 0.184846 0)
(-0.0428795 0.208743 0)
(-0.0578624 0.216742 0)
(-0.0713992 0.213773 0)
(-0.0836874 0.202505 0)
(-0.0952992 0.183868 0)
(-0.106964 0.157646 0)
(-0.119405 0.12295 0)
(-0.133181 0.0785948 0)
(-0.148493 0.0234306 0)
(-0.164809 -0.0431484 0)
(-0.180412 -0.120549 0)
(-0.191809 -0.205338 0)
(-0.193108 -0.288717 0)
(-0.176374 -0.352754 0)
(-0.134129 -0.367419 0)
(-0.0700747 -0.295065 0)
(-0.0083241 -0.12131 0)
(-0.00185306 0.0657633 0)
(-0.0134876 0.150472 0)
(-0.027035 0.19915 0)
(-0.0393285 0.222068 0)
(-0.0486345 0.228194 0)
(-0.0551379 0.223433 0)
(-0.0596063 0.210983 0)
(-0.0631047 0.192038 0)
(-0.0668181 0.166476 0)
(-0.0719532 0.133372 0)
(-0.079645 0.091339 0)
(-0.0908214 0.0387771 0)
(-0.105923 -0.0258141 0)
(-0.124433 -0.103339 0)
(-0.144077 -0.192752 0)
(-0.159585 -0.28831 0)
(-0.161716 -0.374168 0)
(-0.137707 -0.416987 0)
(-0.0832724 -0.361934 0)
(-0.0127808 -0.163422 0)
(-0.00329043 0.0742919 0)
(-0.0181188 0.163468 0)
(-0.0306396 0.210909 0)
(-0.0384026 0.230171 0)
(-0.0403303 0.232474 0)
(-0.0377401 0.224705 0)
(-0.0322279 0.210464 0)
(-0.0254488 0.191095 0)
(-0.0190306 0.166531 0)
(-0.0145803 0.135845 0)
(-0.0136891 0.0975758 0)
(-0.0178933 0.0498996 0)
(-0.0285408 -0.00923398 0)
(-0.0464438 -0.0819175 0)
(-0.0711624 -0.169478 0)
(-0.0993917 -0.270267 0)
(-0.122703 -0.373568 0)
(-0.12444 -0.447981 0)
(-0.0915728 -0.424538 0)
(-0.0187134 -0.214519 0)
(-0.0063676 0.0873751 0)
(-0.0280497 0.178182 0)
(-0.039367 0.219744 0)
(-0.0407148 0.231438 0)
(-0.0325099 0.227408 0)
(-0.0179859 0.215282 0)
(0.000121108 0.198693 0)
(0.0194914 0.178868 0)
(0.0381106 0.155655 0)
(0.0541 0.128102 0)
(0.0655847 0.0947634 0)
(0.0706278 0.0538115 0)
(0.0671936 0.00305775 0)
(0.0533226 -0.0601723 0)
(0.0274837 -0.138885 0)
(-0.00992333 -0.23555 0)
(-0.0538844 -0.34695 0)
(-0.0866928 -0.450247 0)
(-0.0885529 -0.47077 0)
(-0.0253097 -0.272211 0)
(-0.0125269 0.110607 0)
(-0.0452501 0.196672 0)
(-0.0515261 0.224464 0)
(-0.0409966 0.223019 0)
(-0.0172054 0.209723 0)
(0.0137216 0.192095 0)
(0.0477783 0.173029 0)
(0.0821246 0.153144 0)
(0.114586 0.131955 0)
(0.143253 0.108411 0)
(0.166213 0.0811278 0)
(0.181393 0.0484475 0)
(0.186368 0.00839543 0)
(0.178466 -0.0416199 0)
(0.154608 -0.105128 0)
(0.112336 -0.187435 0)
(0.0511033 -0.293314 0)
(-0.0143853 -0.414449 0)
(-0.0643679 -0.485079 0)
(-0.0295944 -0.330427 0)
(-0.0216107 0.148428 0)
(-0.0652423 0.213116 0)
(-0.0494364 0.215035 0)
(-0.0131124 0.195035 0)
(0.0357662 0.171548 0)
(0.0885753 0.149538 0)
(0.141085 0.129793 0)
(0.190853 0.11172 0)
(0.236248 0.0942944 0)
(0.275852 0.0763458 0)
(0.308119 0.0566342 0)
(0.331209 0.0338268 0)
(0.342681 0.00639592 0)
(0.339721 -0.0276139 0)
(0.318414 -0.0711947 0)
(0.274574 -0.130235 0)
(0.202107 -0.21497 0)
(0.107894 -0.33496 0)
(-0.00323125 -0.451447 0)
(-0.0232694 -0.37872 0)
(-0.0274693 0.229346 0)
(-0.0364881 0.223127 0)
(0.0465556 0.176945 0)
(0.12702 0.138722 0)
(0.205545 0.109473 0)
(0.2774 0.0878463 0)
(0.341673 0.0715524 0)
(0.398345 0.0585642 0)
(0.44747 0.0473794 0)
(0.488806 0.0368495 0)
(0.521654 0.0260233 0)
(0.544798 0.0140427 0)
(0.556292 2.80923e-05 0)
(0.553806 -0.0170145 0)
(0.533305 -0.0390694 0)
(0.490547 -0.0704434 0)
(0.415293 -0.120928 0)
(0.304884 -0.213374 0)
(0.125868 -0.348317 0)
(0.0236647 -0.378788 0)
(0.214443 0.1358 0)
(0.285147 0.0984534 0)
(0.444666 0.0569169 0)
(0.547918 0.0365831 0)
(0.621653 0.0241665 0)
(0.678223 0.0163175 0)
(0.722781 0.0113332 0)
(0.758359 0.00800532 0)
(0.786793 0.00557334 0)
(0.808976 0.00357286 0)
(0.825093 0.00169694 0)
(0.834818 -0.00026784 0)
(0.83728 -0.00250387 0)
(0.83117 -0.0050486 0)
(0.813539 -0.00850068 0)
(0.78194 -0.0135051 0)
(0.724082 -0.0231774 0)
(0.635278 -0.0406027 0)
(0.43131 -0.0912958 0)
(0.270899 -0.153523 0)
)
;

boundaryField
{
    movingWall
    {
        type            fixedValue;
        value           uniform (1 0 0);
    }
    fixedWalls
    {
        type            fixedValue;
        value           uniform (0 0 0);
    }
    frontAndBack
    {
        type            empty;
    }
}


// ************************************************************************* //
