/*--------------------------------*- C++ -*----------------------------------*\
  =========                 |
  \\      /  F ield         | OpenFOAM: The Open Source CFD Toolbox
   \\    /   O peration     | Website:  https://openfoam.org
    \\  /    A nd           | Version:  13
     \\/     M anipulation  |
\*---------------------------------------------------------------------------*/
FoamFile
{
    format      ascii;
    class       volVectorField;
    location    "15";
    object      U_0;
}
// * * * * * * * * * * * * * * * * * * * * * * * * * * * * * * * * * * * * * //

dimensions      [0 1 -1 0 0 0 0];

internalField   nonuniform List<vector> 
400
(
(0.00021303 -0.000213212 0)
(-9.43604e-05 -1.45581e-05 0)
(-0.00151274 0.000202236 0)
(-0.00375747 0.000340148 0)
(-0.00650321 0.000412607 0)
(-0.00945519 0.00044071 0)
(-0.0123644 0.000434977 0)
(-0.0149984 0.000394924 0)
(-0.017118 0.000314078 0)
(-0.0184775 0.000186897 0)
(-0.0188512 1.57153e-05 0)
(-0.0180835 -0.000186523 0)
(-0.0161485 -0.000387969 0)
(-0.0131998 -0.000546858 0)
(-0.00959335 -0.000619052 0)
(-0.00585637 -0.000572345 0)
(-0.00259612 -0.00040051 0)
(-0.000346894 -0.000134628 0)
(0.000583649 0.000143062 0)
(0.000319511 0.000306357 0)
(2.17063e-06 9.21001e-05 0)
(-0.00201448 0.0018708 0)
(-0.00640452 0.00366085 0)
(-0.0125241 0.00489727 0)
(-0.0196602 0.00555001 0)
(-0.0271597 0.00568918 0)
(-0.0344202 0.00536502 0)
(-0.0408633 0.00458511 0)
(-0.0459137 0.00334072 0)
(-0.0490172 0.00165141 0)
(-0.0497057 -0.00039132 0)
(-0.0476893 -0.00259787 0)
(-0.0429665 -0.00467592 0)
(-0.0359145 -0.00626929 0)
(-0.0273136 -0.00703158 0)
(-0.0182856 -0.00672982 0)
(-0.0101162 -0.00535071 0)
(-0.00396741 -0.00317798 0)
(-0.00052481 -0.000842504 0)
(0.000244013 0.000612331 0)
(-0.000277306 0.00167849 0)
(-0.00438063 0.0064237 0)
(-0.0118106 0.0105951 0)
(-0.0214934 0.0134143 0)
(-0.0324005 0.0148383 0)
(-0.0436441 0.0149846 0)
(-0.054386 0.0139408 0)
(-0.0638143 0.0117309 0)
(-0.0711322 0.00836987 0)
(-0.0755927 0.00395385 0)
(-0.0765804 -0.00125668 0)
(-0.0737246 -0.00678653 0)
(-0.0670246 -0.0119541 0)
(-0.0569571 -0.0159477 0)
(-0.0445209 -0.0179832 0)
(-0.0311842 -0.0175244 0)
(-0.0186868 -0.0145201 0)
(-0.00868577 -0.00957982 0)
(-0.00231726 -0.00402893 0)
(8.9016e-05 6.44698e-05 0)
(-0.000530964 0.00453994 0)
(-0.0066704 0.0135976 0)
(-0.0170221 0.0207934 0)
(-0.0300101 0.0254632 0)
(-0.0442926 0.0276803 0)
(-0.0588078 0.0276529 0)
(-0.0725673 0.0255188 0)
(-0.0846173 0.0213257 0)
(-0.0940244 0.0151279 0)
(-0.0999109 0.00712318 0)
(-0.101538 -0.00222396 0)
(-0.0984223 -0.0121112 0)
(-0.0904682 -0.0214023 0)
(-0.0781086 -0.0287415 0)
(-0.0623972 -0.0327856 0)
(-0.0450175 -0.032554 0)
(-0.028123 -0.0278365 0)
(-0.0139475 -0.0195227 0)
(-0.00427853 -0.00968748 0)
(-3.68714e-05 -0.00145506 0)
(-0.000748735 0.00857881 0)
(-0.00872629 0.0232033 0)
(-0.0217373 0.0339796 0)
(-0.0377136 0.0406743 0)
(-0.0550219 0.0436469 0)
(-0.0724726 0.0432743 0)
(-0.0889934 0.0397714 0)
(-0.103561 0.0332165 0)
(-0.115167 0.0236993 0)
(-0.122835 0.011508 0)
(-0.125693 -0.00270604 0)
(-0.123076 -0.017828 0)
(-0.114671 -0.0322578 0)
(-0.100703 -0.0440337 0)
(-0.0821144 -0.0511114 0)
(-0.060688 -0.0518453 0)
(-0.0389965 -0.0456193 0)
(-0.020016 -0.0334329 0)
(-0.00647285 -0.018111 0)
(-0.000142638 -0.00399577 0)
(-0.000928087 0.0136401 0)
(-0.0104644 0.0349541 0)
(-0.0257582 0.0498209 0)
(-0.0443156 0.0587051 0)
(-0.0642605 0.0624239 0)
(-0.0843225 0.0616141 0)
(-0.103404 0.0566052 0)
(-0.120474 0.0475082 0)
(-0.1345 0.0344244 0)
(-0.144435 0.0176838 0)
(-0.149259 -0.00194378 0)
(-0.148057 -0.0230884 0)
(-0.140175 -0.0437365 0)
(-0.125459 -0.06128 0)
(-0.104533 -0.0728088 0)
(-0.0791093 -0.0757007 0)
(-0.0521276 -0.0685287 0)
(-0.027467 -0.0520681 0)
(-0.00916828 -0.0298373 0)
(-0.000262959 -0.00771005 0)
(-0.0010632 0.0195327 0)
(-0.0118108 0.0484704 0)
(-0.0289051 0.0678716 0)
(-0.0495226 0.0791134 0)
(-0.0716096 0.0836241 0)
(-0.093864 0.0823932 0)
(-0.115218 0.0759065 0)
(-0.134693 0.0643073 0)
(-0.151286 0.0476694 0)
(-0.163921 0.0262887 0)
(-0.171429 0.000946493 0)
(-0.172627 -0.0268654 0)
(-0.166436 -0.0548078 0)
(-0.152146 -0.0796458 0)
(-0.129824 -0.097461 0)
(-0.100832 -0.104284 0)
(-0.0682686 -0.0972956 0)
(-0.0369658 -0.076448 0)
(-0.0127175 -0.0457212 0)
(-0.000442193 -0.0129266 0)
(-0.00114654 0.0260267 0)
(-0.0126943 0.0632851 0)
(-0.0310038 0.0875707 0)
(-0.053028 0.101327 0)
(-0.0766031 0.10672 0)
(-0.100442 0.10518 0)
(-0.123559 0.0973957 0)
(-0.145084 0.0835454 0)
(-0.164115 0.0636322 0)
(-0.179607 0.037828 0)
(-0.190322 0.00679048 0)
(-0.194824 -0.0280459 0)
(-0.191591 -0.0641772 0)
(-0.179249 -0.0978611 0)
(-0.157057 -0.124124 0)
(-0.125628 -0.137305 0)
(-0.0877874 -0.132455 0)
(-0.0491028 -0.107733 0)
(-0.0175104 -0.066939 0)
(-0.00073551 -0.0201784 0)
(-0.00117388 0.0328567 0)
(-0.0130677 0.0788513 0)
(-0.0319215 0.108238 0)
(-0.0545626 0.124612 0)
(-0.0787772 0.130976 0)
(-0.103333 0.129285 0)
(-0.127372 0.120484 0)
(-0.150195 0.1048 0)
(-0.171077 0.0821351 0)
(-0.189109 0.0524532 0)
(-0.203096 0.0161458 0)
(-0.211479 -0.0255997 0)
(-0.212375 -0.0703682 0)
(-0.203742 -0.114165 0)
(-0.183833 -0.151099 0)
(-0.152062 -0.173634 0)
(-0.110299 -0.173927 0)
(-0.0642065 -0.14694 0)
(-0.02395 -0.0949103 0)
(-0.00121875 -0.0302206 0)
(-0.00115184 0.0397447 0)
(-0.0129473 0.0945736 0)
(-0.0316346 0.129095 0)
(-0.0539906 0.148069 0)
(-0.077797 0.155413 0)
(-0.101911 0.153691 0)
(-0.125644 0.144168 0)
(-0.148528 0.127154 0)
(-0.170099 0.102447 0)
(-0.18971 0.0697523 0)
(-0.206379 0.0290788 0)
(-0.218617 -0.0188349 0)
(-0.224402 -0.0719439 0)
(-0.221179 -0.126421 0)
(-0.206144 -0.175849 0)
(-0.177143 -0.210967 0)
(-0.134249 -0.220486 0)
(-0.08207 -0.194469 0)
(-0.0324097 -0.131107 0)
(-0.00200535 -0.0440462 0)
(-0.00110829 0.0464499 0)
(-0.0124652 0.109877 0)
(-0.0303189 0.149312 0)
(-0.0514346 0.170654 0)
(-0.0736214 0.17881 0)
(-0.0958676 0.177038 0)
(-0.117699 0.166996 0)
(-0.138935 0.149139 0)
(-0.159455 0.123195 0)
(-0.179001 0.0886093 0)
(-0.196984 0.0449607 0)
(-0.212216 -0.0075967 0)
(-0.222885 -0.0678438 0)
(-0.226258 -0.132456 0)
(-0.218667 -0.195195 0)
(-0.196259 -0.245701 0)
(-0.156563 -0.269255 0)
(-0.101571 -0.249432 0)
(-0.0431268 -0.176684 0)
(-0.00326892 -0.0628866 0)
(-0.00110747 0.052853 0)
(-0.0119364 0.124321 0)
(-0.0284503 0.168104 0)
(-0.0474022 0.191249 0)
(-0.06666 0.199758 0)
(-0.0854163 0.197673 0)
(-0.103477 0.187131 0)
(-0.121006 0.168797 0)
(-0.138287 0.14239 0)
(-0.155531 0.107149 0)
(-0.172681 0.0622294 0)
(-0.189241 0.00711423 0)
(-0.203826 -0.0579134 0)
(-0.2139 -0.130653 0)
(-0.215589 -0.205865 0)
(-0.203605 -0.273227 0)
(-0.172565 -0.315462 0)
(-0.120261 -0.30891 0)
(-0.0559746 -0.231864 0)
(-0.00526432 -0.0881612 0)
(-0.00127634 0.059091 0)
(-0.0119483 0.137749 0)
(-0.0269045 0.184845 0)
(-0.0428798 0.208741 0)
(-0.0578628 0.21674 0)
(-0.0713997 0.213772 0)
(-0.083688 0.202504 0)
(-0.0952998 0.183868 0)
(-0.106964 0.157645 0)
(-0.119406 0.12295 0)
(-0.133181 0.0785951 0)
(-0.148494 0.0234311 0)
(-0.16481 -0.0431477 0)
(-0.180413 -0.120549 0)
(-0.191809 -0.205337 0)
(-0.193109 -0.288716 0)
(-0.176374 -0.352753 0)
(-0.134129 -0.367418 0)
(-0.0700747 -0.295064 0)
(-0.00832408 -0.121309 0)
(-0.00185307 0.065763 0)
(-0.0134878 0.150472 0)
(-0.0270353 0.199149 0)
(-0.039329 0.222067 0)
(-0.0486351 0.228193 0)
(-0.0551387 0.223432 0)
(-0.0596072 0.210982 0)
(-0.0631057 0.192038 0)
(-0.0668191 0.166476 0)
(-0.0719543 0.133372 0)
(-0.079646 0.0913393 0)
(-0.0908224 0.0387776 0)
(-0.105924 -0.0258135 0)
(-0.124434 -0.103338 0)
(-0.144078 -0.192751 0)
(-0.159586 -0.288309 0)
(-0.161717 -0.374167 0)
(-0.137707 -0.416986 0)
(-0.0832724 -0.361934 0)
(-0.0127808 -0.163422 0)
(-0.00329045 0.0742917 0)
(-0.018119 0.163468 0)
(-0.03064 0.210908 0)
(-0.0384032 0.230171 0)
(-0.0403311 0.232473 0)
(-0.037741 0.224704 0)
(-0.032229 0.210463 0)
(-0.0254499 0.191095 0)
(-0.0190318 0.166531 0)
(-0.0145815 0.135845 0)
(-0.0136903 0.0975762 0)
(-0.0178944 0.0499001 0)
(-0.0285419 -0.00923344 0)
(-0.0464447 -0.0819169 0)
(-0.0711632 -0.169477 0)
(-0.0993925 -0.270267 0)
(-0.122703 -0.373568 0)
(-0.124441 -0.44798 0)
(-0.0915729 -0.424538 0)
(-0.0187134 -0.214518 0)
(-0.00636762 0.087375 0)
(-0.0280498 0.178181 0)
(-0.0393674 0.219743 0)
(-0.0407155 0.231438 0)
(-0.0325108 0.227407 0)
(-0.0179869 0.215281 0)
(0.000119942 0.198693 0)
(0.0194901 0.178868 0)
(0.0381093 0.155655 0)
(0.0540988 0.128102 0)
(0.0655835 0.0947637 0)
(0.0706267 0.0538119 0)
(0.0671925 0.0030582 0)
(0.0533216 -0.0601718 0)
(0.0274828 -0.138885 0)
(-0.00992402 -0.23555 0)
(-0.0538849 -0.346949 0)
(-0.0866931 -0.450247 0)
(-0.088553 -0.470769 0)
(-0.0253097 -0.272211 0)
(-0.0125269 0.110607 0)
(-0.0452503 0.196671 0)
(-0.0515264 0.224464 0)
(-0.0409972 0.223018 0)
(-0.0172061 0.209722 0)
(0.0137206 0.192095 0)
(0.0477772 0.173029 0)
(0.0821234 0.153143 0)
(0.114585 0.131955 0)
(0.143252 0.108411 0)
(0.166212 0.081128 0)
(0.181392 0.0484478 0)
(0.186367 0.00839578 0)
(0.178465 -0.0416196 0)
(0.154608 -0.105128 0)
(0.112336 -0.187435 0)
(0.0511028 -0.293314 0)
(-0.0143856 -0.414448 0)
(-0.064368 -0.485078 0)
(-0.0295944 -0.330427 0)
(-0.0216107 0.148428 0)
(-0.0652423 0.213116 0)
(-0.0494366 0.215035 0)
(-0.0131128 0.195034 0)
(0.0357657 0.171547 0)
(0.0885746 0.149538 0)
(0.141084 0.129793 0)
(0.190852 0.11172 0)
(0.236247 0.0942944 0)
(0.275851 0.0763459 0)
(0.308118 0.0566343 0)
(0.331208 0.033827 0)
(0.34268 0.00639615 0)
(0.339721 -0.0276137 0)
(0.318414 -0.0711945 0)
(0.274573 -0.130234 0)
(0.202106 -0.21497 0)
(0.107894 -0.33496 0)
(-0.00323137 -0.451447 0)
(-0.0232694 -0.37872 0)
(-0.0274693 0.229346 0)
(-0.0364881 0.223127 0)
(0.0465555 0.176945 0)
(0.12702 0.138721 0)
(0.205544 0.109472 0)
(0.2774 0.0878462 0)
(0.341673 0.0715522 0)
(0.398345 0.0585641 0)
(0.447469 0.0473794 0)
(0.488805 0.0368495 0)
(0.521653 0.0260234 0)
(0.544798 0.0140428 0)
(0.556292 2.81988e-05 0)
(0.553806 -0.0170144 0)
(0.533304 -0.0390693 0)
(0.490547 -0.0704434 0)
(0.415293 -0.120928 0)
(0.304884 -0.213374 0)
(0.125868 -0.348317 0)
(0.0236647 -0.378788 0)
(0.214443 0.1358 0)
(0.285147 0.0984534 0)
(0.444666 0.0569169 0)
(0.547918 0.0365831 0)
(0.621653 0.0241665 0)
(0.678223 0.0163175 0)
(0.722781 0.0113332 0)
(0.758359 0.00800531 0)
(0.786793 0.00557334 0)
(0.808975 0.00357287 0)
(0.825093 0.00169695 0)
(0.834817 -0.000267823 0)
(0.83728 -0.00250386 0)
(0.83117 -0.00504859 0)
(0.813539 -0.00850067 0)
(0.78194 -0.0135051 0)
(0.724082 -0.0231774 0)
(0.635278 -0.0406027 0)
(0.43131 -0.0912958 0)
(0.270899 -0.153523 0)
)
;

boundaryField
{
    movingWall
    {
        type            calculated;
        value           uniform (1 0 0);
    }
    fixedWalls
    {
        type            calculated;
        value           uniform (0 0 0);
    }
    frontAndBack
    {
        type            empty;
    }
}


// ************************************************************************* //
