/*--------------------------------*- C++ -*----------------------------------*\
  =========                 |
  \\      /  F ield         | OpenFOAM: The Open Source CFD Toolbox
   \\    /   O peration     | Website:  https://openfoam.org
    \\  /    A nd           | Version:  13
     \\/     M anipulation  |
\*---------------------------------------------------------------------------*/
FoamFile
{
    format      ascii;
    class       volScalarField;
    location    "8";
    object      p;
}
// * * * * * * * * * * * * * * * * * * * * * * * * * * * * * * * * * * * * * //

dimensions      [0 2 -2 0 0 0 0];

internalField   nonuniform List<scalar> 
400
(
2.27779e-08
-0.000540987
-0.00113377
-0.00158242
-0.00177057
-0.00164994
-0.00119939
-0.000411554
0.000702235
0.00209819
0.0036866
0.00532338
0.00682303
0.00798428
0.0086383
0.00870308
0.00822689
0.00740813
0.00652965
0.00599608
0.000536631
-2.01824e-05
-0.000525699
-0.000865594
-0.000991603
-0.000873696
-0.000494445
0.000156699
0.00107668
0.00223549
0.00356227
0.00494331
0.00621777
0.00721315
0.00778237
0.00785333
0.00746587
0.00678076
0.00604397
0.00549217
0.00115839
0.000451397
-8.21919e-05
-0.000390256
-0.000504107
-0.000419753
-0.000126232
0.000392726
0.001148
0.00212889
0.0032862
0.00452289
0.00569383
0.00662969
0.00717706
0.00724973
0.00686838
0.00616811
0.00534977
0.00460235
0.00160293
0.000685673
4.87703e-05
-0.000295506
-0.000451536
-0.000439694
-0.000253689
0.000132506
0.000749305
0.00161027
0.00268901
0.00390358
0.00510827
0.00611594
0.00673896
0.00684936
0.0064318
0.00560229
0.00454836
0.00348072
0.00163095
0.000503055
-0.000258946
-0.000675915
-0.000915931
-0.00101779
-0.000974638
-0.000745182
-0.000273197
0.000485903
0.00153411
0.00281015
0.00416418
0.00537989
0.00621261
0.00646171
0.006047
0.00505435
0.00367518
0.00218766
0.00104515
-0.000272861
-0.00116379
-0.00168079
-0.00204639
-0.00231179
-0.00246418
-0.00244127
-0.00215387
-0.00151672
-0.000487336
0.000910287
0.00252663
0.0041138
0.00534907
0.00591943
0.00563219
0.00450944
0.00274433
0.000725707
-0.000321389
-0.00179816
-0.00281446
-0.00345705
-0.00399478
-0.00448718
-0.00491184
-0.00518094
-0.00516474
-0.00472314
-0.00374509
-0.00222105
-0.000248957
0.0018958
0.00379685
0.0049802
0.00506684
0.00394456
0.00177099
-0.000911546
-0.00260183
-0.00419921
-0.00533397
-0.00612818
-0.00689047
-0.00768781
-0.00848791
-0.00917577
-0.00957464
-0.00947593
-0.0086833
-0.00708282
-0.00470975
-0.00182361
0.00107055
0.00329011
0.00416744
0.00333126
0.000803376
-0.00268938
-0.00588543
-0.00756035
-0.00880226
-0.00976969
-0.0108075
-0.0119933
-0.0132893
-0.0145561
-0.0155674
-0.016033
-0.0156421
-0.0141369
-0.0114186
-0.00766552
-0.00343002
0.000372954
0.00266901
0.00263676
-4.19532e-05
-0.00447193
-0.0102078
-0.0119129
-0.0132395
-0.0143825
-0.0157258
-0.0173665
-0.0192708
-0.0212831
-0.0231311
-0.0244373
-0.024753
-0.0236303
-0.0207657
-0.0161531
-0.0102961
-0.00430463
0.000246179
0.00183946
-0.000532262
-0.00593416
-0.0155495
-0.0172318
-0.0185956
-0.019871
-0.0214958
-0.0236034
-0.0261783
-0.029061
-0.0319428
-0.034362
-0.0357217
-0.0353484
-0.0326867
-0.0274134
-0.019836
-0.0111284
-0.00336688
0.000996383
-0.000243642
-0.00642278
-0.0218527
-0.0234469
-0.0247526
-0.0260323
-0.0278185
-0.0303058
-0.033515
-0.0372953
-0.0413128
-0.0450317
-0.0477166
-0.0484884
-0.0464122
-0.0408406
-0.0316931
-0.0199761
-0.00810467
0.000416677
0.00156575
-0.00474257
-0.0290702
-0.0304739
-0.0315403
-0.0325622
-0.0342491
-0.0368932
-0.0405667
-0.0451339
-0.0502401
-0.0552844
-0.0594049
-0.0615106
-0.0603746
-0.054905
-0.0445239
-0.0298066
-0.0131711
0.000966039
0.00616781
0.00113688
-0.0372699
-0.0382728
-0.0387683
-0.0390763
-0.040232
-0.0426646
-0.0465017
-0.0516121
-0.0576078
-0.0638182
-0.0692637
-0.0726673
-0.0725309
-0.0673536
-0.0560172
-0.0384612
-0.0166935
0.0044252
0.0156859
0.0144124
-0.0468354
-0.0469219
-0.0462421
-0.0451226
-0.0451458
-0.0468924
-0.0505186
-0.0558573
-0.0624484
-0.0695245
-0.075977
-0.0803517
-0.080908
-0.0757935
-0.063392
-0.0429403
-0.0157144
0.0137429
0.0335606
0.0397808
-0.0589551
-0.0568089
-0.0538469
-0.0502574
-0.0484123
-0.0489708
-0.0520279
-0.0573035
-0.0641915
-0.071781
-0.0787975
-0.0835929
-0.0841984
-0.0784202
-0.0642352
-0.0402018
-0.00673863
0.0330073
0.064963
0.0837668
-0.0763831
-0.0685274
-0.0613236
-0.0539067
-0.0494656
-0.0484556
-0.0507313
-0.055762
-0.0627286
-0.0705083
-0.0776233
-0.0822024
-0.0820257
-0.0745518
-0.0573395
-0.0282843
0.0130617
0.0663656
0.115467
0.154503
-0.108107
-0.0843836
-0.0693424
-0.0561126
-0.0482302
-0.0453514
-0.0467576
-0.0514897
-0.0584057
-0.0661249
-0.0729452
-0.0767649
-0.0751082
-0.0650213
-0.0435952
-0.00778526
0.0441615
0.114286
0.187466
0.262667
-0.168135
-0.100322
-0.0729275
-0.0522807
-0.0412661
-0.037424
-0.0388134
-0.0438607
-0.0511046
-0.0589707
-0.0656148
-0.0687925
-0.0658057
-0.0533268
-0.0278831
0.0150262
0.0794266
0.172005
0.285092
0.445266
-0.40221
-0.138659
-0.0733636
-0.044819
-0.0306421
-0.0264712
-0.0285966
-0.0345099
-0.0424736
-0.0508383
-0.0577347
-0.0609095
-0.0576764
-0.0446997
-0.0173676
0.0307864
0.107937
0.235969
0.426775
0.792993
)
;

boundaryField
{
    movingWall
    {
        type            zeroGradient;
    }
    fixedWalls
    {
        type            zeroGradient;
    }
    frontAndBack
    {
        type            empty;
    }
}


// ************************************************************************* //
