/*--------------------------------*- C++ -*----------------------------------*\
  =========                 |
  \\      /  F ield         | OpenFOAM: The Open Source CFD Toolbox
   \\    /   O peration     | Website:  https://openfoam.org
    \\  /    A nd           | Version:  13
     \\/     M anipulation  |
\*---------------------------------------------------------------------------*/
FoamFile
{
    format      ascii;
    class       surfaceScalarField;
    location    "8";
    object      phi;
}
// * * * * * * * * * * * * * * * * * * * * * * * * * * * * * * * * * * * * * //

dimensions      [0 3 -1 0 0 0 0];

internalField   nonuniform List<scalar> 
760
(
3.25984e-06
-3.25959e-06
-3.88927e-05
4.21525e-05
-0.000127245
8.83524e-05
-0.000246932
0.000119687
-0.000383009
0.000136076
-0.000522765
0.000139757
-0.000654977
0.000132211
-0.00076863
0.000113653
-0.000852347
8.3717e-05
-0.000894974
4.2627e-05
-0.000887257
-7.71703e-06
-0.000824563
-6.26937e-05
-0.000709406
-0.000115157
-0.000553434
-0.000155973
-0.000377375
-0.000176058
-0.000208319
-0.000169056
-7.41892e-05
-0.00013413
3.89771e-06
-7.80869e-05
2.1589e-05
-1.76914e-05
2.1589e-05
-4.53996e-05
4.21402e-05
-0.000200843
0.000197596
-0.000451486
0.000338995
-0.000766705
0.000434905
-0.00111458
0.000483951
-0.00146556
0.000490737
-0.00179201
0.000458663
-0.00206689
0.000388535
-0.00226358
0.000280402
-0.00235765
0.000136701
-0.00233073
-3.46396e-05
-0.00217487
-0.000218558
-0.00189805
-0.000391975
-0.0015268
-0.00052722
-0.00110584
-0.000597021
-0.000692571
-0.000582322
-0.000346123
-0.000480578
-0.000112198
-0.000312012
-7.52898e-06
-0.000122361
1.406e-05
-0.000105617
0.000147757
-0.000383566
0.000475545
-0.00078958
0.000745009
-0.00127732
0.000922647
-0.00180283
0.00100946
-0.00232539
0.0010133
-0.00280634
0.000939609
-0.00320782
0.000790021
-0.00349322
0.000565795
-0.00362969
0.000273178
-0.00359288
-7.14501e-05
-0.00337255
-0.00043889
-0.00297857
-0.000785951
-0.00244486
-0.00106093
-0.0018296
-0.00121228
-0.00120951
-0.00120242
-0.000666728
-0.00102336
-0.000269631
-0.000709109
-5.24064e-05
-0.000339586
-3.83465e-05
-0.000163003
0.000310761
-0.000559193
0.000871735
-0.00111181
0.00129763
-0.00175701
0.00156784
-0.0024403
0.00169275
-0.00311323
0.00168623
-0.00373017
0.00155655
-0.00424649
0.00130634
-0.00461883
0.000938143
-0.00480784
0.000462189
-0.00478297
-9.63277e-05
-0.00452851
-0.000693346
-0.00405079
-0.00126367
-0.00338392
-0.0017278
-0.00259273
-0.00200347
-0.00176935
-0.0020258
-0.00102018
-0.00177252
-0.000442975
-0.00128631
-0.000100143
-0.000682418
-0.00013849
-0.00021446
0.000525221
-0.000718542
0.00137582
-0.00140514
0.00198423
-0.0021934
0.00235611
-0.00301979
0.00251914
-0.00383066
0.00249709
-0.0045766
0.00230249
-0.0052092
0.00193894
-0.00568049
0.00140944
-0.00594498
0.00072667
-0.00596408
-7.72255e-05
-0.00571203
-0.000945398
-0.00518483
-0.00179086
-0.00440897
-0.00250367
-0.0034493
-0.00296314
-0.00241092
-0.00306418
-0.00142887
-0.00275458
-0.00064142
-0.00207376
-0.00015249
-0.00117135
-0.00029098
-0.000258554
0.000783775
-0.00085628
0.00197354
-0.00166018
0.00278812
-0.00257475
0.00327068
-0.00352941
0.0034738
-0.00446778
0.00343546
-0.0053394
0.00317411
-0.0060947
0.00269424
-0.00668287
0.00199761
-0.00705248
0.00109628
-0.0071551
2.53953e-05
-0.00695013
-0.00115036
-0.00641623
-0.00232477
-0.00556307
-0.00335682
-0.00444655
-0.00407966
-0.00317957
-0.00433117
-0.0019288
-0.00400534
-0.000886443
-0.00311612
-0.000216747
-0.00184104
-0.000507726
-0.000293814
0.00107759
-0.000967284
0.00264701
-0.0018671
0.00368794
-0.00288639
0.00428996
-0.00394998
0.00453739
-0.00500115
0.00448664
-0.00599112
0.00416408
-0.00687185
0.00357496
-0.00759197
0.00271773
-0.00809548
0.0015998
-0.00832259
0.000252511
-0.00821661
-0.00125635
-0.00773148
-0.00280991
-0.0068502
-0.0042381
-0.00560699
-0.00532287
-0.0041109
-0.00582726
-0.00255706
-0.00555918
-0.00120391
-0.00446927
-0.00030239
-0.00274256
-0.000810116
-0.000318589
0.00139618
-0.00104611
0.00337453
-0.00201501
0.00465684
-0.00311051
0.00538546
-0.00425525
0.00568213
-0.00539454
0.00562593
-0.00648393
0.00525347
-0.00747999
0.00457102
-0.00833411
0.00357184
-0.00898872
0.00225441
-0.00937613
0.00063992
-0.00942179
-0.00121069
-0.0090527
-0.003179
-0.0082158
-0.00507499
-0.00690758
-0.00663109
-0.005213
-0.00752185
-0.00334037
-0.00743181
-0.00161925
-0.00619039
-0.000420081
-0.00394173
-0.0012302
-0.000331655
0.00172783
-0.00108833
0.00413121
-0.00209399
0.0056625
-0.00322892
0.00652038
-0.00441564
0.00686886
-0.00560361
0.0068139
-0.00675536
0.00640522
-0.00783561
0.00565127
-0.00880296
0.0045392
-0.00960378
0.00305523
-0.0101681
0.00120422
-0.0104089
-0.000969852
-0.0102278
-0.00336017
-0.00953019
-0.00577256
-0.00825871
-0.00790256
-0.00644599
-0.00933456
-0.00428145
-0.00959635
-0.00215256
-0.00831928
-0.000581467
-0.00551283
-0.00181166
-0.000333325
0.00206116
-0.00109312
0.004891
-0.00209906
0.00666845
-0.00322842
0.00764974
-0.00440529
0.00804572
-0.00558512
0.00799373
-0.00674002
0.00756012
-0.00784652
0.00675777
-0.00887583
0.00556851
-0.00978556
0.00396496
-0.0105126
0.00193131
-0.0109679
-0.000514597
-0.0110363
-0.0032918
-0.0105842
-0.00622463
-0.00948935
-0.00899741
-0.0077013
-0.0111226
-0.00534122
-0.0119564
-0.00281092
-0.0108496
-0.000798828
-0.00752492
-0.00261049
-0.000327025
0.00238818
-0.0010669
0.00563088
-0.00203565
0.0076372
-0.00310812
0.00872221
-0.00421155
0.00914915
-0.00530952
0.0090917
-0.00638629
0.00863688
-0.00743379
0.00780527
-0.0084411
0.00657582
-0.00938499
0.00490884
-0.0102206
0.00276688
-0.0108701
0.000134926
-0.0112191
-0.00294283
-0.0111073
-0.00633642
-0.0103492
-0.00975547
-0.00878824
-0.0126836
-0.00641868
-0.014326
-0.0035758
-0.0136925
-0.00108354
-0.0100172
-0.00369403
-0.000321414
0.0027096
-0.00102767
0.00633714
-0.0019255
0.00853502
-0.00288673
0.00968344
-0.00384449
0.0101069
-0.00477375
0.010021
-0.00567395
0.00953708
-0.00655557
0.0086869
-0.00742974
0.00744998
-0.00829877
0.00577788
-0.00914579
0.0036139
-0.00992301
0.000912141
-0.0105319
-0.00233396
-0.0108132
-0.00605508
-0.0105376
-0.0100311
-0.00943955
-0.0137817
-0.0073362
-0.0164293
-0.00438557
-0.0166431
-0.00144188
-0.0129609
-0.00513591
-0.000333471
0.00304307
-0.0010099
0.00701357
-0.00181185
0.00933697
-0.00260765
0.0104792
-0.00334233
0.0108416
-0.00400835
0.010687
-0.00462463
0.0101534
-0.00522295
0.00928521
-0.00583861
0.00806565
-0.00650265
0.00644193
-0.00723257
0.00434382
-0.00801945
0.00169902
-0.00880658
-0.00154683
-0.00946439
-0.00539727
-0.00975874
-0.00973671
-0.00934365
-0.0141967
-0.00784074
-0.0179323
-0.00511696
-0.0193669
-0.00186639
-0.0162114
-0.0070023
-0.000393355
0.00343642
-0.00106981
0.00769002
-0.00176156
0.0100287
-0.00233701
0.0110547
-0.00276618
0.0112708
-0.00306997
0.0109908
-0.00329317
0.0103766
-0.00349125
0.00948328
-0.00372352
0.00829791
-0.0040485
0.00676691
-0.00451784
0.00481316
-0.00516621
0.00234739
-0.0059922
-0.000720835
-0.00692695
-0.00446252
-0.00778303
-0.00888063
-0.00819643
-0.0137833
-0.00762652
-0.0185022
-0.00557298
-0.0214204
-0.00232137
-0.0194631
-0.00932367
-0.000552734
0.00398916
-0.00128853
0.00842582
-0.00185661
0.0105968
-0.00214331
0.0113414
-0.00216962
0.0112971
-0.00200255
0.0108237
-0.00172145
0.0100955
-0.00140761
0.00916943
-0.001142
0.00803231
-0.00100568
0.00663059
-0.00107838
0.00488586
-0.00143398
0.00270298
-0.00212852
-2.62907e-05
-0.00317317
-0.00341786
-0.00447682
-0.00757698
-0.00574403
-0.0125161
-0.00636687
-0.0178793
-0.00548092
-0.0223063
-0.00272163
-0.0222224
-0.0120453
-0.0008926
0.00488176
-0.00175762
0.00929084
-0.00214708
0.0109863
-0.00202145
0.0112158
-0.00150061
0.0107762
-0.000723305
0.0100464
0.000186885
0.00918529
0.00112328
0.00823304
0.00198774
0.00716785
0.00268466
0.00593366
0.00311597
0.00445455
0.00317947
0.00263948
0.00277092
0.000382256
0.00180199
-0.00244894
0.000239141
-0.00601413
-0.00177689
-0.0105001
-0.00372191
-0.0159343
-0.00448339
-0.0215449
-0.00290137
-0.0238044
-0.0149467
-0.00151363
0.00639538
-0.00247314
0.0102504
-0.00244884
0.010962
-0.00162788
0.0103948
-0.000307087
0.00945543
0.00127835
0.00846096
0.00296122
0.00750242
0.00461814
0.00657612
0.00614705
0.00563894
0.00745074
0.00462997
0.0084264
0.0034789
0.00895871
0.00210717
0.00891426
0.000426709
0.00814797
-0.00168264
0.0065126
-0.00437876
0.00394915
-0.00793665
0.000736916
-0.0127221
-0.00206996
-0.018738
-0.00252641
-0.0233479
-0.0174731
-0.00234816
0.00874354
-0.00285244
0.0107546
-0.00165858
0.0097681
0.000452449
0.00828378
0.00295137
0.00695651
0.00554548
0.00586684
0.00807292
0.00497498
0.0104352
0.00421382
0.0125572
0.00351694
0.0143642
0.00282298
0.0157688
0.00207428
0.0166621
0.00121385
0.0169048
0.000184058
0.0163299
-0.00110777
0.0147205
-0.00276938
0.0118398
-0.00505593
0.00757712
-0.00845938
0.00256429
-0.0137252
-0.000929457
-0.0198542
-0.0184025
-0.00199723
0.0107408
0.000358918
0.00839848
0.00430162
0.0058254
0.00828521
0.00430019
0.0120057
0.00323601
0.0153711
0.00250149
0.0183642
0.00198187
0.0209896
0.00158843
0.0232441
0.00126236
0.0251046
0.000962562
0.0265214
0.000657438
0.0274135
0.000321807
0.0276653
-6.77432e-05
0.0271247
-0.00056726
0.0255642
-0.00120886
0.0226518
-0.00214346
0.0179199
-0.00372758
0.0109288
-0.00673402
0.00301505
-0.0119404
-0.0153875
0.0107408
0.0191393
0.0249647
0.0292648
0.0325009
0.0350023
0.0369842
0.0385726
0.039835
0.0407976
0.041455
0.0417768
0.0417091
0.0411418
0.039933
0.0377895
0.0340619
0.0273279
0.0153875
)
;

boundaryField
{
    movingWall
    {
        type            calculated;
        value           uniform 0;
    }
    fixedWalls
    {
        type            calculated;
        value           uniform 0;
    }
    frontAndBack
    {
        type            empty;
    }
}


// ************************************************************************* //
