/*--------------------------------*- C++ -*----------------------------------*\
  =========                 |
  \\      /  F ield         | OpenFOAM: The Open Source CFD Toolbox
   \\    /   O peration     | Website:  https://openfoam.org
    \\  /    A nd           | Version:  13
     \\/     M anipulation  |
\*---------------------------------------------------------------------------*/
FoamFile
{
    format      ascii;
    class       surfaceScalarField;
    location    "8";
    object      phi_0;
}
// * * * * * * * * * * * * * * * * * * * * * * * * * * * * * * * * * * * * * //

dimensions      [0 3 -1 0 0 0 0];

internalField   nonuniform List<scalar> 
760
(
3.25119e-06
-3.25818e-06
-3.88944e-05
4.21457e-05
-0.000127229
8.83348e-05
-0.000246891
0.000119661
-0.000382936
0.000136046
-0.000522661
0.000139724
-0.000654841
0.000132181
-0.000768469
0.000113628
-0.000852169
8.36998e-05
-0.00089479
4.26215e-05
-0.000887082
-7.70873e-06
-0.00082441
-6.26716e-05
-0.000709287
-0.000115123
-0.000553354
-0.000155933
-0.000377335
-0.000176019
-0.000208312
-0.000169024
-7.42011e-05
-0.000134111
3.88081e-06
-7.80819e-05
2.15798e-05
-1.7699e-05
2.15798e-05
-4.53938e-05
4.21357e-05
-0.000200805
0.000197557
-0.00045139
0.00033892
-0.000766532
0.000434804
-0.00111432
0.000483836
-0.00146522
0.00049062
-0.00179159
0.000458556
-0.00206641
0.000388449
-0.00226306
0.000280349
-0.00235713
0.000136689
-0.00233024
-3.46048e-05
-0.00217443
-0.000218478
-0.00189769
-0.000391858
-0.00152654
-0.000527083
-0.00110568
-0.000596884
-0.000692495
-0.000582207
-0.000346104
-0.000480502
-0.000112206
-0.00031198
-7.53752e-06
-0.000122367
1.40423e-05
-0.000105592
0.000147728
-0.000383472
0.000475436
-0.000789382
0.00074483
-0.001277
0.000922422
-0.00180238
0.00100921
-0.00232481
0.00101306
-0.00280565
0.000939391
-0.00320705
0.000789851
-0.0034924
0.000565696
-0.00362887
0.000273163
-0.0035921
-7.13726e-05
-0.00337186
-0.000438725
-0.002978
-0.000785717
-0.00244443
-0.00106066
-0.00182931
-0.001212
-0.00120933
-0.00120218
-0.000666653
-0.00102318
-0.000269612
-0.000709021
-5.24079e-05
-0.000339572
-3.83656e-05
-0.000162959
0.000310687
-0.000559042
0.000871519
-0.00111152
0.00129731
-0.00175655
0.00156745
-0.00243967
0.00169233
-0.00311243
0.00168582
-0.00372924
0.0015562
-0.00424546
0.00130607
-0.00461776
0.000937992
-0.00480677
0.000462174
-0.00478194
-9.61972e-05
-0.00452759
-0.000693079
-0.00405001
-0.0012633
-0.0033833
-0.00172736
-0.00259229
-0.00200302
-0.00176907
-0.0020254
-0.00102004
-0.00177222
-0.000442923
-0.00128614
-0.000100135
-0.000682359
-0.000138501
-0.0002144
0.000525087
-0.000718344
0.00137546
-0.00140476
0.00198372
-0.00219283
0.00235552
-0.00301902
0.00251852
-0.0038297
0.00249651
-0.00457549
0.00230199
-0.00520799
0.00193857
-0.00567923
0.00140923
-0.00594371
0.000726656
-0.00596286
-7.70396e-05
-0.00571092
-0.000945024
-0.00518388
-0.00179034
-0.0044082
-0.00250304
-0.00344872
-0.00296249
-0.00241054
-0.00306358
-0.00142865
-0.0027541
-0.000641331
-0.00207346
-0.000152471
-0.00117122
-0.000290972
-0.000258483
0.00078357
-0.000856051
0.00197303
-0.00165975
0.00278742
-0.0025741
0.00326987
-0.00352855
0.00347298
-0.00446673
0.00343468
-0.00533819
0.00317346
-0.00609338
0.00269375
-0.00668149
0.00199734
-0.0070511
0.00109626
-0.00715377
2.56287e-05
-0.00694891
-0.00114989
-0.00641514
-0.0023241
-0.00556217
-0.00335602
-0.00444586
-0.0040788
-0.00317908
-0.00433035
-0.00192852
-0.00400467
-0.000886317
-0.00311566
-0.000216717
-0.00184082
-0.000507689
-0.000293739
0.00107731
-0.000967047
0.00264634
-0.00186665
0.00368702
-0.00288572
0.00428894
-0.0039491
0.00453636
-0.0050001
0.00448568
-0.00598992
0.00416328
-0.00687054
0.00357437
-0.0075906
0.0027174
-0.0080941
0.00159977
-0.00832126
0.000252784
-0.00821536
-0.00125579
-0.00773034
-0.00280911
-0.00684923
-0.00423713
-0.00560621
-0.00532182
-0.00411034
-0.00582623
-0.00255671
-0.00555829
-0.00120375
-0.00446863
-0.000302349
-0.00274222
-0.000810038
-0.00031852
0.00139583
-0.00104589
0.00337371
-0.0020146
0.00465574
-0.0031099
0.00538423
-0.00425445
0.00568091
-0.00539357
0.0056248
-0.00648283
0.00525254
-0.0074788
0.00457035
-0.00833287
0.00357147
-0.00898748
0.00225437
-0.00937491
0.000640219
-0.00942063
-0.00121007
-0.00905163
-0.00317812
-0.00821485
-0.00507391
-0.00690679
-0.00662988
-0.0052124
-0.00752063
-0.00333998
-0.00743071
-0.00161906
-0.00618955
-0.000420028
-0.00394125
-0.00123007
-0.0003316
0.00172743
-0.00108815
0.00413026
-0.00209366
0.00566125
-0.00322842
0.00651899
-0.00441499
0.00686748
-0.00560284
0.00681265
-0.00675449
0.00640419
-0.00783468
0.00565053
-0.008802
0.0045388
-0.00960282
0.00305519
-0.0101671
0.00120454
-0.010408
-0.000969208
-0.0102269
-0.00335924
-0.00952938
-0.00577141
-0.008258
-0.00790126
-0.00644541
-0.00933321
-0.00428105
-0.00959508
-0.00215235
-0.00831825
-0.000581404
-0.00551219
-0.00181147
-0.000333293
0.00206072
-0.00109301
0.00488998
-0.00209885
0.00666709
-0.00322811
0.00764825
-0.00440487
0.00804424
-0.00558463
0.0079924
-0.00673947
0.00755904
-0.00784596
0.00675701
-0.00887527
0.00556811
-0.009785
0.00396493
-0.0105121
0.00193164
-0.0109674
-0.000513944
-0.0110357
-0.00329087
-0.0105837
-0.00622347
-0.00948883
-0.0089961
-0.00770084
-0.0111212
-0.00534086
-0.0119551
-0.00281071
-0.0108484
-0.000798759
-0.00752413
-0.00261023
-0.000327022
0.00238774
-0.00106688
0.00562984
-0.00203559
0.0076358
-0.00310802
0.00872068
-0.00421142
0.00914764
-0.00530938
0.00909036
-0.00638615
0.00863581
-0.00743367
0.00780453
-0.00844102
0.00657545
-0.00938493
0.00490884
-0.0102205
0.00276723
-0.01087
0.000135579
-0.011219
-0.00294194
-0.0111071
-0.00633532
-0.010349
-0.00975422
-0.00878799
-0.0126822
-0.00641843
-0.0143246
-0.00357562
-0.0136912
-0.00108347
-0.0100163
-0.0036937
-0.000321441
0.00270919
-0.00102774
0.00633614
-0.00192561
0.00853367
-0.00288689
0.00968195
-0.00384469
0.0101054
-0.004774
0.0100197
-0.00567425
0.00953606
-0.00655593
0.00868622
-0.00743015
0.00744967
-0.00829924
0.00577793
-0.00914628
0.00361427
-0.00992348
0.000912778
-0.0105323
-0.00233312
-0.0108135
-0.00605409
-0.0105378
-0.0100299
-0.00943959
-0.0137804
-0.00733613
-0.0164281
-0.00438547
-0.0166419
-0.00144182
-0.0129599
-0.00513552
-0.00033353
0.00304272
-0.00101007
0.00701268
-0.00181214
0.00933574
-0.00260806
0.0104779
-0.00334285
0.0108402
-0.00400897
0.0106858
-0.00462536
0.0101524
-0.00522376
0.00928462
-0.00583949
0.0080654
-0.00650359
0.00644202
-0.00723352
0.00434421
-0.00802038
0.00169963
-0.00880744
-0.00154606
-0.00946513
-0.00539639
-0.0097593
-0.00973577
-0.00934401
-0.0141957
-0.00784089
-0.0179312
-0.00511697
-0.0193658
-0.00186636
-0.0162105
-0.00700188
-0.000393442
0.00343616
-0.00107006
0.0076893
-0.001762
0.0100277
-0.00233764
0.0110535
-0.00276699
0.0112696
-0.00307093
0.0109897
-0.00329426
0.0103758
-0.00349243
0.00948279
-0.00372477
0.00829774
-0.00404978
0.00676703
-0.00451912
0.00481354
-0.00516745
0.00234796
-0.00599336
-0.000720145
-0.00692798
-0.00446177
-0.00778388
-0.00887987
-0.00819705
-0.0137826
-0.00762688
-0.0185014
-0.00557312
-0.0214196
-0.00232138
-0.0194623
-0.00932326
-0.000552838
0.003989
-0.00128885
0.00842531
-0.00185717
0.010596
-0.00214411
0.0113405
-0.00217064
0.0112961
-0.00200375
0.0108228
-0.0017228
0.0100948
-0.00140904
0.00916903
-0.00114348
0.00803218
-0.00100716
0.00663072
-0.00107983
0.00488621
-0.00143535
0.00270349
-0.0021298
-2.57031e-05
-0.00317432
-0.00341725
-0.00447781
-0.00757639
-0.00574479
-0.0125156
-0.00636738
-0.0178788
-0.00548118
-0.0223058
-0.00272168
-0.0222218
-0.0120449
-0.000892706
0.0048817
-0.00175794
0.00929055
-0.00214768
0.0109857
-0.00202232
0.0112151
-0.00150172
0.0107755
-0.000724622
0.0100457
0.000185425
0.00918478
0.00112174
0.00823272
0.00198618
0.00716774
0.00268314
0.00593376
0.00311451
0.00445483
0.00317812
0.00263989
0.00276969
0.000382728
0.00180089
-0.00244845
0.00023819
-0.00601368
-0.00177767
-0.0104997
-0.00372247
-0.015934
-0.00448371
-0.0215445
-0.00290146
-0.023804
-0.0149464
-0.00151371
0.00639541
-0.00247341
0.0102503
-0.00244937
0.0109617
-0.00162867
0.0103944
-0.00030812
0.00945496
0.00127712
0.00846051
0.00295984
0.00750206
0.00461669
0.00657587
0.00614558
0.00563884
0.00744931
0.00463002
0.00842506
0.00347908
0.0089575
0.00210745
0.00891318
0.000427042
0.00814703
-0.0016823
0.00651181
-0.00437846
0.0039485
-0.00793641
0.000736435
-0.0127219
-0.00207026
-0.0187378
-0.00252652
-0.0233478
-0.0174729
-0.00234819
0.0087436
-0.00285258
0.0107546
-0.0016589
0.00976801
0.000451913
0.00828358
0.00295061
0.00695626
0.00554454
0.00586659
0.00807183
0.00497477
0.010434
0.00421367
0.012556
0.00351688
0.014363
0.00282301
0.0157677
0.00207438
0.0166612
0.00121402
0.0169039
0.000184249
0.0163292
-0.00110757
0.01472
-0.00276921
0.0118394
-0.00505581
0.00757678
-0.00845932
0.00256407
-0.0137251
-0.000929554
-0.0198541
-0.0184025
-0.00199721
0.0107408
0.000358926
0.00839851
0.00430155
0.00582539
0.008285
0.00430013
0.0120053
0.00323593
0.0153705
0.0025014
0.0183635
0.00198179
0.0209888
0.00158838
0.0232433
0.00126234
0.0251038
0.000962573
0.0265207
0.000657478
0.0274128
0.000321867
0.0276647
-6.76679e-05
0.0271243
-0.000567194
0.0255639
-0.00120881
0.0226516
-0.00214343
0.0179198
-0.00372757
0.0109287
-0.00673402
0.003015
-0.0119404
-0.0153875
0.0107408
0.0191393
0.0249647
0.0292648
0.0325008
0.0350022
0.036984
0.0385723
0.0398347
0.0407972
0.0414547
0.0417766
0.0417089
0.0411417
0.0399329
0.0377895
0.0340619
0.0273279
0.0153875
)
;

boundaryField
{
    movingWall
    {
        type            calculated;
        value           uniform 0;
    }
    fixedWalls
    {
        type            calculated;
        value           uniform 0;
    }
    frontAndBack
    {
        type            empty;
    }
}


// ************************************************************************* //
