/*--------------------------------*- C++ -*----------------------------------*\
  =========                 |
  \\      /  F ield         | OpenFOAM: The Open Source CFD Toolbox
   \\    /   O peration     | Website:  https://openfoam.org
    \\  /    A nd           | Version:  13
     \\/     M anipulation  |
\*---------------------------------------------------------------------------*/
FoamFile
{
    format      ascii;
    class       volVectorField;
    location    "8";
    object      U;
}
// * * * * * * * * * * * * * * * * * * * * * * * * * * * * * * * * * * * * * //

dimensions      [0 1 -1 0 0 0 0];

internalField   nonuniform List<vector> 
400
(
(0.000197065 -0.000197023 0)
(-0.000115943 -6.72187e-06 0)
(-0.00148506 0.000199733 0)
(-0.00363404 0.000330225 0)
(-0.00625563 0.000397922 0)
(-0.00907016 0.000423087 0)
(-0.0118424 0.000415979 0)
(-0.0143538 0.00037659 0)
(-0.0163802 0.000299142 0)
(-0.0176907 0.000178425 0)
(-0.0180714 1.63008e-05 0)
(-0.0173715 -0.000175552 0)
(-0.0155596 -0.00036772 0)
(-0.0127735 -0.000521067 0)
(-0.00934288 -0.000593537 0)
(-0.0057645 -0.000553551 0)
(-0.00261815 -0.00039304 0)
(-0.000416296 -0.00013965 0)
(0.000524564 0.00012525 0)
(0.000301507 0.000288822 0)
(-3.5024e-06 0.000113432 0)
(-0.00194005 0.00181226 0)
(-0.0061263 0.00350858 0)
(-0.0119472 0.00467619 0)
(-0.0187298 0.00529035 0)
(-0.0258585 0.00541897 0)
(-0.032767 0.0051113 0)
(-0.0389126 0.00437603 0)
(-0.0437544 0.00320471 0)
(-0.0467682 0.00161307 0)
(-0.047505 -0.000317377 0)
(-0.0456776 -0.00241288 0)
(-0.0412671 -0.00440077 0)
(-0.0346123 -0.00594397 0)
(-0.0264388 -0.00670928 0)
(-0.0178062 -0.00646572 0)
(-0.00994297 -0.0051872 0)
(-0.0039718 -0.00312933 0)
(-0.000580801 -0.000888463 0)
(0.000223969 0.000550911 0)
(-0.000265885 0.00163154 0)
(-0.00415857 0.00614461 0)
(-0.0111992 0.0100936 0)
(-0.020375 0.01276 0)
(-0.0307191 0.0141089 0)
(-0.0413973 0.0142541 0)
(-0.0516231 0.0132808 0)
(-0.0606336 0.0112123 0)
(-0.0676763 0.00805891 0)
(-0.0720381 0.00390196 0)
(-0.0731215 -0.001025 0)
(-0.0705518 -0.00628451 0)
(-0.0643012 -0.0112373 0)
(-0.0547973 -0.0151109 0)
(-0.0429723 -0.0171475 0)
(-0.0302179 -0.0168148 0)
(-0.0182014 -0.0140352 0)
(-0.00852552 -0.00936046 0)
(-0.00231344 -0.00403467 0)
(7.47985e-05 -2.09292e-05 0)
(-0.000501499 0.00433794 0)
(-0.00629524 0.0129287 0)
(-0.0160761 0.0197431 0)
(-0.0283663 0.0241732 0)
(-0.0419082 0.0262932 0)
(-0.0557057 0.0263023 0)
(-0.0688309 0.0243318 0)
(-0.0803846 0.0204235 0)
(-0.0894788 0.0146171 0)
(-0.0952669 0.00708008 0)
(-0.0970231 -0.00177042 0)
(-0.0942534 -0.0111929 0)
(-0.0868329 -0.0201157 0)
(-0.0751444 -0.0272424 0)
(-0.0601752 -0.0312701 0)
(-0.0435296 -0.0312271 0)
(-0.027278 -0.0268675 0)
(-0.0135833 -0.0189955 0)
(-0.00419602 -0.00955904 0)
(-4.48642e-05 -0.00152791 0)
(-0.000703809 0.0081424 0)
(-0.00822203 0.0219915 0)
(-0.0205137 0.0322078 0)
(-0.0356434 0.0385836 0)
(-0.0520816 0.04146 0)
(-0.0687121 0.0411923 0)
(-0.0845263 0.0379808 0)
(-0.0985541 0.0318881 0)
(-0.109827 0.022976 0)
(-0.117393 0.011485 0)
(-0.120388 -0.00200082 0)
(-0.118132 -0.0164461 0)
(-0.110286 -0.0303349 0)
(-0.097036 -0.0417811 0)
(-0.0792647 -0.0487967 0)
(-0.0586839 -0.0497565 0)
(-0.0377778 -0.0440099 0)
(-0.0194322 -0.0324528 0)
(-0.00630428 -0.0177418 0)
(-0.000144479 -0.00401238 0)
(-0.000872915 0.012909 0)
(-0.00987672 0.0330862 0)
(-0.0243592 0.0472043 0)
(-0.0419837 0.0557031 0)
(-0.0609913 0.0593495 0)
(-0.0801889 0.0587393 0)
(-0.0985403 0.0541736 0)
(-0.115062 0.0457346 0)
(-0.128751 0.0334798 0)
(-0.138576 0.0176748 0)
(-0.143516 -0.00099364 0)
(-0.142645 -0.0212483 0)
(-0.135289 -0.0411718 0)
(-0.121267 -0.0582439 0)
(-0.101166 -0.0696275 0)
(-0.0766408 -0.0727405 0)
(-0.0505482 -0.0661384 0)
(-0.0266599 -0.0504911 0)
(-0.00890922 -0.0291166 0)
(-0.000258072 -0.00762521 0)
(-0.001005 0.0184761 0)
(-0.0112011 0.045892 0)
(-0.0274652 0.0643563 0)
(-0.0471411 0.0751596 0)
(-0.0682972 0.0796401 0)
(-0.0897084 0.0787207 0)
(-0.110363 0.0728401 0)
(-0.129319 0.0620961 0)
(-0.145595 0.0465021 0)
(-0.158116 0.0262747 0)
(-0.165706 0.0021021 0)
(-0.167169 -0.0246235 0)
(-0.161416 -0.0516616 0)
(-0.147723 -0.0758705 0)
(-0.126148 -0.0934186 0)
(-0.0980219 -0.100404 0)
(-0.0663814 -0.0940221 0)
(-0.0359465 -0.0741456 0)
(-0.0123651 -0.0445392 0)
(-0.000429105 -0.0126928 0)
(-0.00109375 0.0246503 0)
(-0.0121331 0.0600129 0)
(-0.0296762 0.0831843 0)
(-0.0508354 0.0964608 0)
(-0.0735657 0.101877 0)
(-0.0966536 0.100768 0)
(-0.119161 0.0937512 0)
(-0.140247 0.08094 0)
(-0.159013 0.0622601 0)
(-0.174408 0.0377915 0)
(-0.185174 0.00809317 0)
(-0.189861 -0.0254979 0)
(-0.186935 -0.0605724 0)
(-0.175026 -0.0934742 0)
(-0.153408 -0.119323 0)
(-0.122702 -0.132549 0)
(-0.0857103 -0.128268 0)
(-0.0479107 -0.104616 0)
(-0.0170673 -0.0651972 0)
(-0.000711966 -0.0197467 0)
(-0.00113501 0.0312059 0)
(-0.0126266 0.0749776 0)
(-0.0308608 0.103095 0)
(-0.0527994 0.118958 0)
(-0.0763347 0.125402 0)
(-0.100302 0.124258 0)
(-0.123883 0.116374 0)
(-0.146397 0.10189 0)
(-0.167111 0.0806102 0)
(-0.185097 0.0523973 0)
(-0.199129 0.0175414 0)
(-0.207623 -0.0228584 0)
(-0.208681 -0.0664748 0)
(-0.200269 -0.109374 0)
(-0.180674 -0.14575 0)
(-0.149364 -0.168171 0)
(-0.108238 -0.16891 0)
(-0.0629275 -0.142994 0)
(-0.0234314 -0.0925396 0)
(-0.00118219 -0.0295443 0)
(-0.00113409 0.0379023 0)
(-0.0126894 0.0902634 0)
(-0.0309792 0.123391 0)
(-0.0528728 0.14183 0)
(-0.0762361 0.149308 0)
(-0.0999853 0.148238 0)
(-0.123465 0.139761 0)
(-0.146215 0.124075 0)
(-0.167755 0.100864 0)
(-0.187408 0.0697174 0)
(-0.204144 0.0305428 0)
(-0.21645 -0.0159975 0)
(-0.222268 -0.0679504 0)
(-0.219037 -0.121491 0)
(-0.20401 -0.170263 0)
(-0.175109 -0.2051 0)
(-0.132505 -0.214867 0)
(-0.0808527 -0.189794 0)
(-0.0318526 -0.128096 0)
(-0.00195374 -0.0430888 0)
(-0.00111627 0.0445291 0)
(-0.0124367 0.105356 0)
(-0.0301732 0.143313 0)
(-0.0511266 0.164101 0)
(-0.0731595 0.172433 0)
(-0.0953069 0.171395 0)
(-0.11712 0.1625 0)
(-0.138421 0.146063 0)
(-0.159065 0.121677 0)
(-0.178752 0.0886572 0)
(-0.196842 0.0464713 0)
(-0.212141 -0.00480903 0)
(-0.222756 -0.0639432 0)
(-0.225917 -0.127669 0)
(-0.218034 -0.189737 0)
(-0.195335 -0.23984 0)
(-0.155489 -0.263409 0)
(-0.100625 -0.244278 0)
(-0.0425982 -0.173115 0)
(-0.00320218 -0.0616347 0)
(-0.00114247 0.0509861 0)
(-0.0121604 0.119854 0)
(-0.0288709 0.162125 0)
(-0.0479958 0.184699 0)
(-0.0674171 0.193404 0)
(-0.0863567 0.192104 0)
(-0.104637 0.182769 0)
(-0.122418 0.165901 0)
(-0.13996 0.141067 0)
(-0.157442 0.107362 0)
(-0.174764 0.0638228 0)
(-0.191339 0.00985654 0)
(-0.205769 -0.0542177 0)
(-0.215529 -0.126229 0)
(-0.216708 -0.20087 0)
(-0.204101 -0.267804 0)
(-0.172475 -0.309861 0)
(-0.119825 -0.303671 0)
(-0.0555734 -0.22794 0)
(-0.00518665 -0.0866415 0)
(-0.00133621 0.0574152 0)
(-0.0124209 0.133619 0)
(-0.0278912 0.17922 0)
(-0.0443795 0.202528 0)
(-0.0598421 0.210712 0)
(-0.0738301 0.208531 0)
(-0.0865431 0.198474 0)
(-0.0985451 0.181296 0)
(-0.110547 0.15661 0)
(-0.123247 0.123378 0)
(-0.137174 0.0802968 0)
(-0.152483 0.0261489 0)
(-0.168611 -0.0397184 0)
(-0.18382 -0.116621 0)
(-0.194589 -0.201038 0)
(-0.195064 -0.284085 0)
(-0.177419 -0.347854 0)
(-0.134388 -0.362568 0)
(-0.0699166 -0.291108 0)
(-0.00824682 -0.119604 0)
(-0.00193257 0.0644058 0)
(-0.0141761 0.146946 0)
(-0.0285245 0.194202 0)
(-0.0416427 0.216511 0)
(-0.0517139 0.222772 0)
(-0.0588963 0.218738 0)
(-0.0639406 0.207429 0)
(-0.0678986 0.18986 0)
(-0.0719447 0.165736 0)
(-0.077278 0.133979 0)
(-0.085029 0.0930774 0)
(-0.0961149 0.0413583 0)
(-0.110965 -0.0227064 0)
(-0.129046 -0.0999549 0)
(-0.14805 -0.189231 0)
(-0.162693 -0.284649 0)
(-0.163779 -0.37029 0)
(-0.138703 -0.412959 0)
(-0.0834504 -0.358341 0)
(-0.0127239 -0.161676 0)
(-0.00338052 0.0733541 0)
(-0.0189547 0.160767 0)
(-0.0324926 0.206913 0)
(-0.0413242 0.225548 0)
(-0.0442413 0.227891 0)
(-0.0424983 0.220718 0)
(-0.0376519 0.207463 0)
(-0.0313387 0.189307 0)
(-0.0251845 0.166015 0)
(-0.020808 0.136517 0)
(-0.0198238 0.099233 0)
(-0.0237934 0.0522588 0)
(-0.0340831 -0.00648695 0)
(-0.0515163 -0.0790632 0)
(-0.0756305 -0.166689 0)
(-0.103075 -0.267561 0)
(-0.125398 -0.370806 0)
(-0.126012 -0.445037 0)
(-0.0921007 -0.42167 0)
(-0.0187015 -0.212921 0)
(-0.00645189 0.0869087 0)
(-0.0289122 0.176438 0)
(-0.041338 0.216883 0)
(-0.0438793 0.227942 0)
(-0.0367895 0.223827 0)
(-0.0232072 0.212101 0)
(-0.00580529 0.196269 0)
(0.0131202 0.177415 0)
(0.0315531 0.155246 0)
(0.0475937 0.128683 0)
(0.0593234 0.0961719 0)
(0.0647549 0.0558058 0)
(0.0618002 0.0053546 0)
(0.0484625 -0.0578483 0)
(0.0232089 -0.136739 0)
(-0.0135278 -0.233651 0)
(-0.0566802 -0.345184 0)
(-0.0885081 -0.448414 0)
(-0.0893254 -0.46883 0)
(-0.0253574 -0.270949 0)
(-0.012577 0.110576 0)
(-0.0459462 0.19586 0)
(-0.053228 0.222761 0)
(-0.0438354 0.220701 0)
(-0.0211488 0.207199 0)
(0.00882376 0.189756 0)
(0.0421584 0.17118 0)
(0.0760548 0.151981 0)
(0.108348 0.131569 0)
(0.137109 0.108784 0)
(0.160382 0.0821524 0)
(0.176035 0.0499423 0)
(0.181582 0.0101334 0)
(0.174286 -0.0398697 0)
(0.151027 -0.103569 0)
(0.109347 -0.18618 0)
(0.0487148 -0.292326 0)
(-0.01605 -0.413517 0)
(-0.0651759 -0.484037 0)
(-0.0296873 -0.329616 0)
(-0.0215921 0.148665 0)
(-0.0655468 0.212991 0)
(-0.0504131 0.214293 0)
(-0.0149649 0.193775 0)
(0.0329654 0.17003 0)
(0.0848823 0.148039 0)
(0.13666 0.128544 0)
(0.185927 0.110883 0)
(0.231083 0.0939547 0)
(0.270714 0.0765129 0)
(0.303247 0.0572489 0)
(0.32679 0.0347742 0)
(0.338842 0.00753015 0)
(0.336509 -0.0264796 0)
(0.315809 -0.0702111 0)
(0.272505 -0.129509 0)
(0.200498 -0.214521 0)
(0.106731 -0.334631 0)
(-0.00386187 -0.451073 0)
(-0.0233703 -0.37837 0)
(-0.0273997 0.229588 0)
(-0.0363646 0.223296 0)
(0.0464584 0.176803 0)
(0.126426 0.138269 0)
(0.204274 0.108825 0)
(0.275393 0.0871515 0)
(0.338994 0.0709434 0)
(0.39515 0.0581394 0)
(0.443976 0.0471947 0)
(0.485256 0.0369169 0)
(0.518278 0.0263143 0)
(0.541798 0.014496 0)
(0.553778 0.000555956 0)
(0.551829 -0.0164892 0)
(0.531861 -0.0386306 0)
(0.489545 -0.0701526 0)
(0.414602 -0.120803 0)
(0.304394 -0.213352 0)
(0.125559 -0.348296 0)
(0.0235858 -0.37874 0)
(0.214516 0.135871 0)
(0.285379 0.0985422 0)
(0.444927 0.0569563 0)
(0.548026 0.0365636 0)
(0.62145 0.0241059 0)
(0.677633 0.0162424 0)
(0.721817 0.0112686 0)
(0.757105 0.00796912 0)
(0.785377 0.00557477 0)
(0.807543 0.00361216 0)
(0.823781 0.00176561 0)
(0.83373 -0.000182704 0)
(0.836487 -0.0024368 0)
(0.830693 -0.00498742 0)
(0.813323 -0.00845832 0)
(0.781904 -0.0134917 0)
(0.724127 -0.0231921 0)
(0.635318 -0.0406292 0)
(0.43131 -0.0913215 0)
(0.270891 -0.153535 0)
)
;

boundaryField
{
    movingWall
    {
        type            fixedValue;
        value           uniform (1 0 0);
    }
    fixedWalls
    {
        type            fixedValue;
        value           uniform (0 0 0);
    }
    frontAndBack
    {
        type            empty;
    }
}


// ************************************************************************* //
