/*--------------------------------*- C++ -*----------------------------------*\
  =========                 |
  \\      /  F ield         | OpenFOAM: The Open Source CFD Toolbox
   \\    /   O peration     | Website:  https://openfoam.org
    \\  /    A nd           | Version:  13
     \\/     M anipulation  |
\*---------------------------------------------------------------------------*/
FoamFile
{
    format      ascii;
    class       volVectorField;
    location    "8";
    object      U_0;
}
// * * * * * * * * * * * * * * * * * * * * * * * * * * * * * * * * * * * * * //

dimensions      [0 1 -1 0 0 0 0];

internalField   nonuniform List<vector> 
400
(
(0.000196969 -0.000196973 0)
(-0.000116083 -6.69735e-06 0)
(-0.00148497 0.000199716 0)
(-0.00363349 0.000330176 0)
(-0.0062545 0.000397852 0)
(-0.00906838 0.000423003 0)
(-0.0118399 0.00041589 0)
(-0.0143508 0.000376504 0)
(-0.0163767 0.000299072 0)
(-0.017687 0.000178385 0)
(-0.0180677 1.63031e-05 0)
(-0.0173681 -0.000175501 0)
(-0.0155569 -0.000367625 0)
(-0.0127715 -0.000520945 0)
(-0.00934171 -0.000593417 0)
(-0.00576407 -0.000553462 0)
(-0.00261826 -0.000393004 0)
(-0.000416624 -0.000139672 0)
(0.000524286 0.000125163 0)
(0.00030142 0.000288738 0)
(-3.53807e-06 0.000113487 0)
(-0.00193973 0.00181197 0)
(-0.00612505 0.00350787 0)
(-0.0119445 0.00467516 0)
(-0.0187255 0.00528914 0)
(-0.0258525 0.00541771 0)
(-0.0327593 0.00511011 0)
(-0.0389035 0.00437504 0)
(-0.0437444 0.00320405 0)
(-0.0467576 0.00161287 0)
(-0.0474947 -0.000317046 0)
(-0.0456682 -0.00241202 0)
(-0.0412591 -0.00439948 0)
(-0.0346061 -0.00594245 0)
(-0.0264347 -0.00670777 0)
(-0.017804 -0.00646448 0)
(-0.00994216 -0.00518643 0)
(-0.00397182 -0.0031291 0)
(-0.000581066 -0.000888687 0)
(0.000223874 0.000550618 0)
(-0.000265837 0.0016313 0)
(-0.00415757 0.00614332 0)
(-0.0111964 0.0100913 0)
(-0.0203699 0.012757 0)
(-0.0307113 0.0141055 0)
(-0.041387 0.0142506 0)
(-0.0516103 0.0132777 0)
(-0.0606188 0.0112098 0)
(-0.0676602 0.0080574 0)
(-0.0720215 0.00390166 0)
(-0.0731053 -0.00102396 0)
(-0.0705368 -0.00628219 0)
(-0.0642884 -0.0112339 0)
(-0.0547871 -0.015107 0)
(-0.0429649 -0.0171436 0)
(-0.0302134 -0.0168114 0)
(-0.0181991 -0.0140329 0)
(-0.00852477 -0.00935943 0)
(-0.00231343 -0.0040347 0)
(7.47307e-05 -2.13367e-05 0)
(-0.000501368 0.004337 0)
(-0.00629354 0.0129256 0)
(-0.0160718 0.0197383 0)
(-0.0283588 0.0241672 0)
(-0.0418972 0.0262867 0)
(-0.0556914 0.026296 0)
(-0.0688135 0.0243262 0)
(-0.0803648 0.0204191 0)
(-0.0894575 0.0146146 0)
(-0.0952451 0.00707976 0)
(-0.0970018 -0.00176838 0)
(-0.0942337 -0.0111886 0)
(-0.0868157 -0.0201097 0)
(-0.0751304 -0.0272353 0)
(-0.0601646 -0.031263 0)
(-0.0435225 -0.0312208 0)
(-0.0272741 -0.0268629 0)
(-0.0135816 -0.018993 0)
(-0.00419563 -0.00955844 0)
(-4.49029e-05 -0.00152826 0)
(-0.000703605 0.0081404 0)
(-0.00821973 0.021986 0)
(-0.020508 0.0321997 0)
(-0.0356339 0.038574 0)
(-0.052068 0.0414498 0)
(-0.0686947 0.0411825 0)
(-0.0845054 0.0379723 0)
(-0.0985306 0.0318817 0)
(-0.109802 0.0229724 0)
(-0.117368 0.0114847 0)
(-0.120363 -0.00199767 0)
(-0.118108 -0.0164397 0)
(-0.110266 -0.0303259 0)
(-0.0970186 -0.0417705 0)
(-0.0792512 -0.0487858 0)
(-0.0586744 -0.0497467 0)
(-0.0377721 -0.0440022 0)
(-0.0194294 -0.0324481 0)
(-0.00630348 -0.0177401 0)
(-0.000144489 -0.00401246 0)
(-0.000872663 0.0129056 0)
(-0.00987403 0.0330776 0)
(-0.0243527 0.0471922 0)
(-0.0419729 0.0556892 0)
(-0.0609762 0.0593351 0)
(-0.0801696 0.0587257 0)
(-0.0985175 0.054162 0)
(-0.115036 0.045726 0)
(-0.128724 0.0334751 0)
(-0.138548 0.0176745 0)
(-0.143489 -0.000989354 0)
(-0.142619 -0.0212397 0)
(-0.135266 -0.0411597 0)
(-0.121247 -0.0582296 0)
(-0.101149 -0.0696124 0)
(-0.0766291 -0.0727264 0)
(-0.0505407 -0.066127 0)
(-0.026656 -0.0504836 0)
(-0.00890799 -0.0291132 0)
(-0.00025805 -0.00762482 0)
(-0.00100473 0.0184712 0)
(-0.0111983 0.0458802 0)
(-0.0274586 0.0643401 0)
(-0.04713 0.0751412 0)
(-0.0682817 0.0796214 0)
(-0.089689 0.0787033 0)
(-0.11034 0.0728255 0)
(-0.129294 0.0620853 0)
(-0.145568 0.0464962 0)
(-0.158088 0.0262743 0)
(-0.165679 0.0021073 0)
(-0.167143 -0.0246131 0)
(-0.161392 -0.0516469 0)
(-0.147702 -0.0758526 0)
(-0.12613 -0.0933994 0)
(-0.0980085 -0.100385 0)
(-0.0663724 -0.0940065 0)
(-0.0359417 -0.0741347 0)
(-0.0123634 -0.0445336 0)
(-0.000429044 -0.0126917 0)
(-0.00109351 0.024644 0)
(-0.0121305 0.0599978 0)
(-0.02967 0.083164 0)
(-0.0508251 0.0964381 0)
(-0.0735515 0.101854 0)
(-0.0966358 0.100747 0)
(-0.119141 0.0937337 0)
(-0.140224 0.0809273 0)
(-0.158989 0.0622531 0)
(-0.174383 0.0377909 0)
(-0.185149 0.00809897 0)
(-0.189837 -0.025486 0)
(-0.186913 -0.0605555 0)
(-0.175006 -0.0934534 0)
(-0.15339 -0.1193 0)
(-0.122688 -0.132526 0)
(-0.0857003 -0.128248 0)
(-0.047905 -0.104601 0)
(-0.0170652 -0.0651889 0)
(-0.000711855 -0.0197446 0)
(-0.00113482 0.0311983 0)
(-0.0126245 0.0749597 0)
(-0.0308558 0.103071 0)
(-0.0527912 0.118931 0)
(-0.0763232 0.125376 0)
(-0.100288 0.124235 0)
(-0.123866 0.116355 0)
(-0.146379 0.101875 0)
(-0.167092 0.0806024 0)
(-0.185078 0.0523965 0)
(-0.199109 0.0175476 0)
(-0.207605 -0.0228456 0)
(-0.208664 -0.0664564 0)
(-0.200252 -0.109351 0)
(-0.180659 -0.145724 0)
(-0.149351 -0.168145 0)
(-0.108228 -0.168886 0)
(-0.0629214 -0.142975 0)
(-0.0234289 -0.0925283 0)
(-0.00118202 -0.0295411 0)
(-0.001134 0.0378938 0)
(-0.0126882 0.0902435 0)
(-0.0309761 0.123364 0)
(-0.0528675 0.141801 0)
(-0.0762287 0.14928 0)
(-0.0999761 0.148212 0)
(-0.123454 0.13974 0)
(-0.146204 0.12406 0)
(-0.167744 0.100856 0)
(-0.187397 0.0697167 0)
(-0.204133 0.0305492 0)
(-0.216439 -0.0159843 0)
(-0.222257 -0.0679315 0)
(-0.219026 -0.121468 0)
(-0.203999 -0.170237 0)
(-0.175099 -0.205072 0)
(-0.132497 -0.21484 0)
(-0.0808468 -0.189772 0)
(-0.0318499 -0.128082 0)
(-0.00195349 -0.0430842 0)
(-0.0011163 0.0445202 0)
(-0.0124366 0.105335 0)
(-0.0301725 0.143285 0)
(-0.0511251 0.164071 0)
(-0.0731573 0.172403 0)
(-0.0953041 0.171368 0)
(-0.117117 0.162478 0)
(-0.138418 0.146048 0)
(-0.159063 0.121669 0)
(-0.178751 0.0886568 0)
(-0.196841 0.046478 0)
(-0.212141 -0.00479596 0)
(-0.222755 -0.0639247 0)
(-0.225915 -0.127646 0)
(-0.21803 -0.18971 0)
(-0.195331 -0.239812 0)
(-0.155483 -0.263381 0)
(-0.100621 -0.244254 0)
(-0.0425957 -0.173098 0)
(-0.00320186 -0.0616288 0)
(-0.00114263 0.0509774 0)
(-0.0121614 0.119834 0)
(-0.0288728 0.162098 0)
(-0.0479985 0.184668 0)
(-0.0674206 0.193374 0)
(-0.086361 0.192078 0)
(-0.104643 0.182747 0)
(-0.122424 0.165887 0)
(-0.139968 0.14106 0)
(-0.157451 0.107362 0)
(-0.174773 0.0638299 0)
(-0.191348 0.00986938 0)
(-0.205779 -0.0542002 0)
(-0.215537 -0.126207 0)
(-0.216713 -0.200847 0)
(-0.204103 -0.267778 0)
(-0.172475 -0.309834 0)
(-0.119823 -0.303645 0)
(-0.0555714 -0.227921 0)
(-0.00518627 -0.0866342 0)
(-0.00133649 0.0574074 0)
(-0.0124231 0.1336 0)
(-0.0278957 0.179194 0)
(-0.0443865 0.202498 0)
(-0.0598514 0.210683 0)
(-0.0738415 0.208506 0)
(-0.0865566 0.198454 0)
(-0.0985605 0.181283 0)
(-0.110564 0.156604 0)
(-0.123265 0.12338 0)
(-0.137193 0.0803044 0)
(-0.152502 0.0261615 0)
(-0.168629 -0.0397022 0)
(-0.183836 -0.116603 0)
(-0.194602 -0.201017 0)
(-0.195073 -0.284063 0)
(-0.177424 -0.347831 0)
(-0.134389 -0.362544 0)
(-0.0699158 -0.291089 0)
(-0.00824644 -0.119596 0)
(-0.00193294 0.0643996 0)
(-0.0141793 0.14693 0)
(-0.0285315 0.194179 0)
(-0.0416535 0.216485 0)
(-0.0517284 0.222746 0)
(-0.0589141 0.218715 0)
(-0.0639611 0.207411 0)
(-0.0679214 0.189849 0)
(-0.0719692 0.165732 0)
(-0.0773035 0.133981 0)
(-0.0850548 0.0930852 0)
(-0.0961404 0.0413703 0)
(-0.110989 -0.0226918 0)
(-0.129068 -0.0999388 0)
(-0.148069 -0.189214 0)
(-0.162708 -0.284632 0)
(-0.163788 -0.370271 0)
(-0.138708 -0.412939 0)
(-0.0834512 -0.358324 0)
(-0.0127236 -0.161667 0)
(-0.00338094 0.0733498 0)
(-0.0189586 0.160755 0)
(-0.0325013 0.206895 0)
(-0.0413379 0.225526 0)
(-0.0442596 0.22787 0)
(-0.0425208 0.220699 0)
(-0.0376776 0.207449 0)
(-0.0313667 0.189298 0)
(-0.0252139 0.166012 0)
(-0.0208378 0.13652 0)
(-0.0198533 0.0992404 0)
(-0.0238219 0.0522697 0)
(-0.0341098 -0.006474 0)
(-0.0515407 -0.0790496 0)
(-0.0756521 -0.166676 0)
(-0.103093 -0.267548 0)
(-0.125411 -0.370792 0)
(-0.12602 -0.445023 0)
(-0.0921033 -0.421656 0)
(-0.0187014 -0.212913 0)
(-0.00645229 0.0869066 0)
(-0.0289162 0.17643 0)
(-0.0413472 0.21687 0)
(-0.0438941 0.227925 0)
(-0.0368095 0.223811 0)
(-0.0232317 0.212086 0)
(-0.00583329 0.196258 0)
(0.0130899 0.177408 0)
(0.0315218 0.155243 0)
(0.0475626 0.128686 0)
(0.0592933 0.0961783 0)
(0.0647267 0.0558151 0)
(0.0617742 0.00536542 0)
(0.048439 -0.0578373 0)
(0.0231882 -0.136729 0)
(-0.0135452 -0.233642 0)
(-0.0566937 -0.345176 0)
(-0.0885169 -0.448405 0)
(-0.0893291 -0.468821 0)
(-0.0253577 -0.270943 0)
(-0.0125772 0.110576 0)
(-0.0459494 0.195857 0)
(-0.0532358 0.222753 0)
(-0.0438486 0.22069 0)
(-0.0211672 0.207188 0)
(0.00880085 0.189745 0)
(0.042132 0.171171 0)
(0.0760261 0.151975 0)
(0.108318 0.131567 0)
(0.13708 0.108786 0)
(0.160354 0.082157 0)
(0.176009 0.0499492 0)
(0.181559 0.0101415 0)
(0.174265 -0.0398615 0)
(0.15101 -0.103562 0)
(0.109333 -0.186174 0)
(0.0487033 -0.292321 0)
(-0.0160581 -0.413512 0)
(-0.0651798 -0.484032 0)
(-0.0296878 -0.329613 0)
(-0.0215921 0.148666 0)
(-0.0655482 0.21299 0)
(-0.0504176 0.214289 0)
(-0.0149734 0.193769 0)
(0.0329525 0.170023 0)
(0.0848652 0.148032 0)
(0.13664 0.128538 0)
(0.185904 0.110879 0)
(0.231059 0.0939529 0)
(0.270689 0.0765135 0)
(0.303224 0.0572517 0)
(0.326769 0.0347786 0)
(0.338824 0.00753544 0)
(0.336494 -0.0264742 0)
(0.315796 -0.0702065 0)
(0.272495 -0.129505 0)
(0.20049 -0.214519 0)
(0.106725 -0.33463 0)
(-0.00386492 -0.451071 0)
(-0.0233708 -0.378368 0)
(-0.0273993 0.229589 0)
(-0.036364 0.223297 0)
(0.046458 0.176802 0)
(0.126424 0.138267 0)
(0.204268 0.108822 0)
(0.275384 0.0871483 0)
(0.338981 0.0709405 0)
(0.395135 0.0581374 0)
(0.44396 0.0471938 0)
(0.485239 0.0369171 0)
(0.518262 0.0263156 0)
(0.541784 0.0144981 0)
(0.553766 0.000558408 0)
(0.551819 -0.0164868 0)
(0.531854 -0.0386285 0)
(0.48954 -0.0701512 0)
(0.414598 -0.120803 0)
(0.304391 -0.213352 0)
(0.125557 -0.348296 0)
(0.0235854 -0.378739 0)
(0.214516 0.135872 0)
(0.28538 0.0985426 0)
(0.444928 0.0569565 0)
(0.548027 0.0365635 0)
(0.621449 0.0241056 0)
(0.67763 0.016242 0)
(0.721813 0.0112683 0)
(0.757099 0.00796894 0)
(0.78537 0.00557476 0)
(0.807537 0.00361234 0)
(0.823775 0.00176593 0)
(0.833725 -0.000182307 0)
(0.836483 -0.00243649 0)
(0.830691 -0.00498713 0)
(0.813322 -0.00845812 0)
(0.781904 -0.0134917 0)
(0.724128 -0.0231922 0)
(0.635318 -0.0406293 0)
(0.43131 -0.0913216 0)
(0.270891 -0.153535 0)
)
;

boundaryField
{
    movingWall
    {
        type            calculated;
        value           uniform (1 0 0);
    }
    fixedWalls
    {
        type            calculated;
        value           uniform (0 0 0);
    }
    frontAndBack
    {
        type            empty;
    }
}


// ************************************************************************* //
