/*--------------------------------*- C++ -*----------------------------------*\
  =========                 |
  \\      /  F ield         | OpenFOAM: The Open Source CFD Toolbox
   \\    /   O peration     | Website:  https://openfoam.org
    \\  /    A nd           | Version:  13
     \\/     M anipulation  |
\*---------------------------------------------------------------------------*/
FoamFile
{
    format      ascii;
    class       volScalarField;
    location    "14";
    object      p;
}
// * * * * * * * * * * * * * * * * * * * * * * * * * * * * * * * * * * * * * //

dimensions      [0 2 -2 0 0 0 0];

internalField   nonuniform List<scalar> 
400
(
-1.15442e-06
-0.00057189
-0.00121217
-0.00171146
-0.00194836
-0.00187079
-0.00145417
-0.000687676
0.000419639
0.00182374
0.00343113
0.00508988
0.0066048
0.00776489
0.00839522
0.00841424
0.00787814
0.00699611
0.00607813
0.00552577
0.000566172
-2.18888e-05
-0.000568391
-0.000952618
-0.00112436
-0.00105115
-0.000712255
-9.32047e-05
0.000806296
0.00195752
0.00328761
0.0046773
0.00595742
0.0069469
0.00749293
0.00752329
0.0070843
0.00634751
0.00557448
0.00500518
0.00123829
0.000488608
-8.80704e-05
-0.000439635
-0.000601034
-0.000567528
-0.00032485
0.000148326
0.000867991
0.00182676
0.0029753
0.00421217
0.00538463
0.00631438
0.00684122
0.00687741
0.00644858
0.0056994
0.00484279
0.00407267
0.0017298
0.000756867
7.03286e-05
-0.000321861
-0.000533071
-0.000584133
-0.000464801
-0.00014214
0.000421833
0.00124646
0.00230727
0.0035186
0.00472707
0.00573498
0.00634545
0.00642623
0.00596466
0.00508519
0.00398614
0.00288454
0.00178287
0.000587896
-0.000231467
-0.000704559
-0.00101292
-0.00119609
-0.00124178
-0.00109916
-0.000701342
5.06466e-06
0.00102645
0.00229847
0.00366398
0.00489402
0.00573102
0.00596558
0.00551603
0.00447451
0.0030426
0.00150802
0.00118309
-0.000209346
-0.00116499
-0.00174951
-0.0022019
-0.00257343
-0.0028435
-0.00293706
-0.0027506
-0.00218651
-0.00119548
0.000199552
0.00184004
0.00346427
0.00473219
0.00531563
0.0050137
0.00385025
0.00202755
-5.1335e-05
-0.000248569
-0.00180162
-0.00288869
-0.00361273
-0.00426021
-0.00488921
-0.00546662
-0.00588816
-0.00600571
-0.0056627
-0.00473722
-0.0032158
-0.00120407
0.00100801
0.00298225
0.00422169
0.00432944
0.003187
0.000957862
-0.00179607
-0.00265021
-0.00431951
-0.00552902
-0.00641999
-0.00731794
-0.00828618
-0.00927852
-0.0101596
-0.01073
-0.0107603
-0.0100386
-0.00844381
-0.00601608
-0.00302861
-1.16643e-05
0.00232161
0.00327378
0.00245503
-0.000114809
-0.00368505
-0.00610723
-0.00784325
-0.0091608
-0.0102397
-0.0114392
-0.0128307
-0.0143591
-0.015861
-0.0170829
-0.0177099
-0.0174116
-0.0159183
-0.0131337
-0.00924756
-0.00483851
-0.000856631
0.00158265
0.00162384
-0.00106717
-0.0055717
-0.0106423
-0.0123913
-0.0137899
-0.0150556
-0.0165824
-0.0184591
-0.0206313
-0.0229155
-0.0250085
-0.0265047
-0.0269332
-0.0258245
-0.022887
-0.0181177
-0.0120466
-0.00581774
-0.001053
0.000682259
-0.00165471
-0.00711453
-0.0162149
-0.0179183
-0.0193441
-0.0207454
-0.0225666
-0.0249301
-0.0277973
-0.0309766
-0.0341242
-0.036747
-0.0382204
-0.0378189
-0.0351129
-0.029676
-0.0218647
-0.0128853
-0.00485743
-0.000287661
-0.00143469
-0.00763778
-0.0227416
-0.0243292
-0.0256786
-0.0270758
-0.0290569
-0.0318053
-0.0353159
-0.0394016
-0.0436887
-0.0476052
-0.050395
-0.0512048
-0.0489875
-0.04323
-0.0338414
-0.0218492
-0.00969694
-0.000932607
0.000362085
-0.00591987
-0.030148
-0.0315143
-0.0325964
-0.033712
-0.0355754
-0.0384694
-0.0424376
-0.0473029
-0.0526646
-0.0578812
-0.0620649
-0.0641294
-0.0628512
-0.0571761
-0.0465539
-0.0315836
-0.0146971
-0.000328956
0.00504206
9.35175e-05
-0.0384765
-0.0394108
-0.039884
-0.0402457
-0.0415435
-0.0442019
-0.0483182
-0.0537122
-0.0599427
-0.0662931
-0.0717563
-0.0750565
-0.0747198
-0.069289
-0.0576929
-0.0399042
-0.0179389
0.00335209
0.014761
0.0136097
-0.0480881
-0.0480772
-0.0473284
-0.0462089
-0.0463296
-0.0482745
-0.052166
-0.0577786
-0.0645898
-0.0717785
-0.0782061
-0.0824187
-0.0827087
-0.0772729
-0.0645657
-0.0438742
-0.0164915
0.0130641
0.0329703
0.0393117
-0.0601522
-0.0578835
-0.0548014
-0.0511517
-0.0493613
-0.0500995
-0.0534226
-0.0589764
-0.0660875
-0.0737795
-0.0807444
-0.0853333
-0.0856098
-0.0794497
-0.0648974
-0.0405862
-0.00696474
0.0328277
0.0648034
0.0836814
-0.0774105
-0.0694124
-0.0620385
-0.0545083
-0.0500956
-0.0492683
-0.0518276
-0.0571628
-0.0643713
-0.0722627
-0.079322
-0.0836765
-0.0831418
-0.0752365
-0.0576042
-0.0282171
0.0133326
0.0666406
0.115733
0.154786
-0.108873
-0.0849983
-0.0697464
-0.0563743
-0.0485214
-0.0458467
-0.0475675
-0.0526347
-0.0598183
-0.0676693
-0.0744479
-0.0780511
-0.0760403
-0.0655095
-0.043641
-0.00746804
0.0447045
0.11489
0.188038
0.26324
-0.168658
-0.100719
-0.0730837
-0.0522889
-0.0413082
-0.0376821
-0.0394009
-0.0447996
-0.0523299
-0.0603506
-0.066979
-0.0699666
-0.0666308
-0.0537591
-0.0278902
0.0153842
0.080029
0.17271
0.285804
0.445938
-0.40272
-0.139008
-0.0734545
-0.0447374
-0.0305774
-0.0266085
-0.0290537
-0.0353169
-0.0435768
-0.052118
-0.0590336
-0.0620655
-0.0585569
-0.0451812
-0.0174461
0.031059
0.108459
0.236612
0.42744
0.793634
)
;

boundaryField
{
    movingWall
    {
        type            zeroGradient;
    }
    fixedWalls
    {
        type            zeroGradient;
    }
    frontAndBack
    {
        type            empty;
    }
}


// ************************************************************************* //
