/*--------------------------------*- C++ -*----------------------------------*\
  =========                 |
  \\      /  F ield         | OpenFOAM: The Open Source CFD Toolbox
   \\    /   O peration     | Website:  https://openfoam.org
    \\  /    A nd           | Version:  13
     \\/     M anipulation  |
\*---------------------------------------------------------------------------*/
FoamFile
{
    format      ascii;
    class       surfaceScalarField;
    location    "14";
    object      phi;
}
// * * * * * * * * * * * * * * * * * * * * * * * * * * * * * * * * * * * * * //

dimensions      [0 3 -1 0 0 0 0];

internalField   nonuniform List<scalar> 
760
(
4.32888e-06
-4.31479e-06
-3.89642e-05
4.32931e-05
-0.000130897
9.19331e-05
-0.000255953
0.000125055
-0.000398408
0.000142455
-0.000544855
0.000146448
-0.000683403
0.000138547
-0.000802333
0.00011893
-0.000889538
8.72047e-05
-0.000933214
4.36765e-05
-0.000923688
-9.52664e-06
-0.00085634
-6.73476e-05
-0.000734195
-0.000122145
-0.000569931
-0.000164264
-0.00038567
-0.000184261
-0.000209955
-0.000175715
-7.18158e-05
-0.000138139
7.29688e-06
-7.91125e-05
2.34666e-05
-1.61694e-05
2.34669e-05
-4.69625e-05
4.26477e-05
-0.000209393
0.000205723
-0.000472315
0.000354856
-0.000803429
0.000456169
-0.00116895
0.000507979
-0.00153755
0.000515042
-0.00187984
0.000480839
-0.00216708
0.000406168
-0.00237106
0.000291188
-0.00246617
0.000138789
-0.00243349
-4.22134e-05
-0.0022654
-0.000235429
-0.00197127
-0.000416277
-0.00157988
-0.000555658
-0.0011388
-0.000625334
-0.000708404
-0.000606116
-0.00035013
-0.000496414
-0.000110706
-0.000318536
-5.78925e-06
-0.000121087
1.76778e-05
-0.000111063
0.000153711
-0.000403879
0.000498539
-0.000831765
0.000782741
-0.00134556
0.00096996
-0.00189855
0.00106098
-0.00244747
0.00106396
-0.00295118
0.000984554
-0.00336958
0.000824567
-0.00366412
0.000585728
-0.00380071
0.000275377
-0.00375462
-8.8302e-05
-0.00351637
-0.00047368
-0.00309768
-0.000834966
-0.00253529
-0.00111805
-0.00189089
-0.00126974
-0.00124483
-0.00125217
-0.000682382
-0.00105886
-0.000273597
-0.000727322
-5.21265e-05
-0.000342558
-3.44487e-05
-0.000172499
0.00032621
-0.000591424
0.000917464
-0.001175
0.00136632
-0.00185519
0.00165015
-0.002574
0.00177979
-0.00327987
0.00176982
-0.00392438
0.00162906
-0.00446045
0.00136064
-0.00484286
0.000968141
-0.00503118
0.0004637
-0.00499476
-0.000124726
-0.00471887
-0.000749566
-0.00421177
-0.00134207
-0.0035104
-0.00181942
-0.00268317
-0.00209698
-0.00182617
-0.00210917
-0.00104958
-0.00183544
-0.000453823
-0.00132308
-0.00010184
-0.00069454
-0.000136289
-0.000227385
0.000553595
-0.000760715
0.00145079
-0.00148552
0.00209112
-0.00231554
0.00248017
-0.00318309
0.00264734
-0.00403115
0.00261789
-0.00480749
0.00240539
-0.00546139
0.00201454
-0.00594333
0.00145007
-0.00620704
0.000727411
-0.00621405
-0.000117713
-0.00593958
-0.00102404
-0.00538126
-0.00190038
-0.00456795
-0.00263273
-0.00356766
-0.00309726
-0.00248946
-0.00318738
-0.00147274
-0.00285216
-0.000659697
-0.00213613
-0.000156329
-0.00119791
-0.000292618
-0.000273715
0.000827311
-0.000904794
0.00208187
-0.00175123
0.00293756
-0.00271127
0.00344021
-0.00370981
0.00364588
-0.00468702
0.0035951
-0.00558984
0.00330821
-0.00636676
0.00279147
-0.00696587
0.00204918
-0.00733537
0.00109692
-0.00742718
-2.59055e-05
-0.00720135
-0.00124986
-0.00663772
-0.00246402
-0.00574751
-0.00352294
-0.00458892
-0.00425586
-0.00327826
-0.00449803
-0.00198693
-0.00414349
-0.000912338
-0.00321072
-0.000222835
-0.00188741
-0.000515454
-0.000309596
0.00113691
-0.00101736
0.00278963
-0.00196037
0.00388057
-0.00302517
0.00450501
-0.00413196
0.00475266
-0.00522071
0.00468386
-0.00624038
0.00432787
-0.00714152
0.00369261
-0.00787222
0.00277988
-0.00837658
0.00160128
-0.00859531
0.000192825
-0.00847225
-0.00137292
-0.00796194
-0.00297433
-0.00704788
-0.00443699
-0.0057653
-0.00553844
-0.00422549
-0.00603785
-0.00262789
-0.00574108
-0.00123722
-0.0046014
-0.000310819
-0.00281381
-0.000826273
-0.00033313
0.00147004
-0.00109229
0.0035488
-0.00210095
0.00488923
-0.00323799
0.00564205
-0.00442157
0.00593624
-0.00559399
0.00585628
-0.00670895
0.00544283
-0.00772221
0.00470587
-0.00858521
0.00364288
-0.00924103
0.0022571
-0.00962277
0.000574569
-0.00965649
-0.00133921
-0.00926943
-0.00336139
-0.00840802
-0.0052984
-0.00706817
-0.0068783
-0.00533515
-0.00777086
-0.00342011
-0.00765613
-0.00165895
-0.00636255
-0.000430835
-0.00404193
-0.00125711
-0.000343066
0.0018131
-0.0011251
0.00433083
-0.00216294
0.00592708
-0.00333141
0.00681051
-0.00454899
0.00715382
-0.00576243
0.00706973
-0.00693288
0.00661327
-0.00802478
0.00579776
-0.0089974
0.00461551
-0.00979834
0.00305804
-0.0103589
0.00113517
-0.0105931
-0.00110501
-0.0104028
-0.00355177
-0.00969222
-0.00600894
-0.00840187
-0.00816864
-0.00656231
-0.00961042
-0.00436301
-0.00985543
-0.00219623
-0.00852933
-0.000594248
-0.00564391
-0.00185136
-0.000339941
0.00215304
-0.00111555
0.00510644
-0.00214238
0.00695391
-0.00329368
0.00796182
-0.00449018
0.00835031
-0.00568505
0.0082646
-0.00684938
0.0077776
-0.00795991
0.0069083
-0.00898902
0.00564462
-0.00989615
0.00396516
-0.0106202
0.00185921
-0.0110729
-0.000652325
-0.0111408
-0.00348386
-0.0106888
-0.00646094
-0.00959138
-0.00926605
-0.00779381
-0.011408
-0.0054137
-0.0122355
-0.00285409
-0.0110889
-0.000812838
-0.00768516
-0.00266419
-0.000327635
0.00248068
-0.00107132
0.00585012
-0.00204677
0.00792935
-0.00312682
0.00904187
-0.00423633
0.00945982
-0.0053371
0.00936537
-0.00641273
0.00885323
-0.0074557
0.00795127
-0.00845659
0.00664551
-0.00939434
0.00490291
-0.0102269
0.00269181
-0.0108743
-4.95513e-06
-0.0112309
-0.00312731
-0.0111313
-0.00656049
-0.0103875
-0.0100098
-0.00883739
-0.0129581
-0.00646833
-0.0146046
-0.00361178
-0.0139455
-0.00109727
-0.0101997
-0.00376146
-0.000315434
0.00279611
-0.00101213
0.00654682
-0.00190081
0.00881803
-0.00285373
0.0099948
-0.00380293
0.010409
-0.0047223
0.0102847
-0.00561098
0.00974192
-0.00648009
0.00882038
-0.00734217
0.00750759
-0.00820151
0.00576225
-0.00904303
0.00353333
-0.00982561
0.000777629
-0.0104449
-0.00250806
-0.0107464
-0.00625893
-0.0104985
-0.0102577
-0.00942997
-0.0140267
-0.00734947
-0.0166851
-0.00440617
-0.0168888
-0.00145302
-0.0131528
-0.00521448
-0.000321029
0.00311714
-0.000974512
0.0072003
-0.00175127
0.00959479
-0.00252277
0.0107663
-0.0032346
0.0111208
-0.00387916
0.0109293
-0.00447555
0.0103383
-0.00505615
0.00940099
-0.00565738
0.00810881
-0.0063116
0.00641647
-0.0070379
0.00425963
-0.00782975
0.00156948
-0.00863103
-0.00170678
-0.00931371
-0.00557624
-0.00964339
-0.00992807
-0.00927065
-0.0143994
-0.00780925
-0.0181465
-0.00511469
-0.0195834
-0.00187206
-0.0163955
-0.00708654
-0.000375335
0.00349248
-0.00101694
0.00784191
-0.00166892
0.0102468
-0.0022055
0.0113029
-0.00259927
0.0115146
-0.00287232
0.0112023
-0.00307023
0.0105362
-0.00324902
0.00957977
-0.00346846
0.00832826
-0.00378735
0.00673536
-0.00425761
0.0047299
-0.00491447
0.00222634
-0.00575711
-0.000864147
-0.00671785
-0.0046155
-0.00761045
-0.00903547
-0.0080703
-0.0139396
-0.00755192
-0.0186649
-0.00554437
-0.0215909
-0.00231894
-0.0196209
-0.00940548
-0.000530972
0.00402345
-0.00122328
0.00853422
-0.00174041
0.0107639
-0.00197679
0.0115392
-0.00195804
0.0114959
-0.00175389
0.0109982
-0.00144517
0.0102275
-0.00111358
0.00924819
-0.000839948
0.00805462
-0.000704374
0.00659978
-0.000785283
0.00481081
-0.00115536
0.00259641
-0.00187018
-0.000149327
-0.00294087
-0.00354482
-0.00427815
-0.00769818
-0.00558828
-0.0126294
-0.00626242
-0.0179907
-0.00542942
-0.0224239
-0.00270998
-0.0223403
-0.0121155
-0.000870299
0.00489375
-0.00168897
0.00935289
-0.00202226
0.0110972
-0.00184008
0.0113571
-0.00126873
0.0109245
-0.000451048
0.0101805
0.000487372
0.00928907
0.00143899
0.00829657
0.00230654
0.00718708
0.00299603
0.00591029
0.00341168
0.00439516
0.00345376
0.00255433
0.00302054
0.000283893
0.00202428
-0.00254856
0.000431023
-0.00610493
-0.00162065
-0.0105778
-0.0036087
-0.0160027
-0.00441971
-0.0216129
-0.00288216
-0.0238779
-0.0149976
-0.00149599
0.00638973
-0.00241531
0.0102722
-0.00233872
0.0110206
-0.00146268
0.010481
-9.12857e-05
0.00955313
0.0015353
0.00855393
0.00324678
0.00757759
0.00491869
0.00662466
0.00644923
0.00565654
0.00774276
0.00461676
0.00869899
0.00343893
0.00920563
0.00204769
0.0091323
0.000357223
0.0083367
-0.00175295
0.00667254
-0.00444077
0.00407977
-0.00798498
0.000834096
-0.012757
-0.00200931
-0.0187695
-0.00250442
-0.0233828
-0.017502
-0.00234149
0.00873122
-0.00282207
0.0107528
-0.00159026
0.00978879
0.000565824
0.00832494
0.00311007
0.00700888
0.00574396
0.00592004
0.00830147
0.00502008
0.0106817
0.00424443
0.0128086
0.00352959
0.0146082
0.00281716
0.0159951
0.00205212
0.0168631
0.00117964
0.017076
0.000144292
0.0164712
-0.00114813
0.0148341
-0.00280364
0.0119293
-0.00508018
0.00764515
-0.00847288
0.00260895
-0.0137333
-0.000909868
-0.019864
-0.0184119
-0.00200228
0.0107335
0.000357716
0.00839279
0.0043178
0.00582871
0.00833059
0.00431215
0.012086
0.00325344
0.0154859
0.00252018
0.018508
0.00199803
0.021153
0.00159934
0.0234161
0.00126653
0.0252734
0.000959828
0.0266767
0.000648825
0.0275471
0.000309303
0.0277747
-8.33395e-05
0.0272075
-0.000580917
0.0256234
-0.00121958
0.0226929
-0.00214966
0.0179491
-0.00372908
0.0109487
-0.00673283
0.00302401
-0.0119393
-0.0153879
0.0107335
0.0191263
0.024955
0.0292672
0.0325206
0.0350408
0.0370388
0.0386381
0.0399047
0.0408645
0.0415133
0.0418226
0.0417393
0.0411584
0.0399388
0.0377891
0.03406
0.0273272
0.0153879
)
;

boundaryField
{
    movingWall
    {
        type            calculated;
        value           uniform 0;
    }
    fixedWalls
    {
        type            calculated;
        value           uniform 0;
    }
    frontAndBack
    {
        type            empty;
    }
}


// ************************************************************************* //
