/*--------------------------------*- C++ -*----------------------------------*\
  =========                 |
  \\      /  F ield         | OpenFOAM: The Open Source CFD Toolbox
   \\    /   O peration     | Website:  https://openfoam.org
    \\  /    A nd           | Version:  13
     \\/     M anipulation  |
\*---------------------------------------------------------------------------*/
FoamFile
{
    format      ascii;
    class       surfaceScalarField;
    location    "14";
    object      phi_0;
}
// * * * * * * * * * * * * * * * * * * * * * * * * * * * * * * * * * * * * * //

dimensions      [0 3 -1 0 0 0 0];

internalField   nonuniform List<scalar> 
760
(
4.32751e-06
-4.31544e-06
-3.89647e-05
4.32926e-05
-0.000130897
9.19318e-05
-0.00025595
0.000125053
-0.000398403
0.000142453
-0.000544849
0.000146445
-0.000683394
0.000138545
-0.000802323
0.000118928
-0.000889526
8.72036e-05
-0.000933202
4.36762e-05
-0.000923676
-9.52602e-06
-0.00085633
-6.73461e-05
-0.000734187
-0.000122143
-0.000569926
-0.000164262
-0.000385667
-0.000184258
-0.000209954
-0.000175713
-7.18163e-05
-0.000138138
7.29612e-06
-7.91126e-05
2.34663e-05
-1.61706e-05
2.34659e-05
-4.69621e-05
4.2647e-05
-0.00020939
0.00020572
-0.000472309
0.00035485
-0.000803417
0.000456162
-0.00116894
0.000507971
-0.00153752
0.000515034
-0.00187981
0.000480832
-0.00216704
0.000406162
-0.00237103
0.000291185
-0.00246614
0.000138788
-0.00243345
-4.22109e-05
-0.00226538
-0.000235424
-0.00197125
-0.00041627
-0.00157986
-0.000555649
-0.00113879
-0.000625325
-0.000708399
-0.000606108
-0.000350128
-0.000496408
-0.000110707
-0.000318534
-5.78921e-06
-0.000121087
1.76764e-05
-0.000111061
0.000153708
-0.000403873
0.000498531
-0.000831752
0.000782729
-0.00134553
0.000969945
-0.00189852
0.00106096
-0.00244743
0.00106394
-0.00295114
0.00098454
-0.00336953
0.000824556
-0.00366407
0.000585721
-0.00380066
0.000275376
-0.00375457
-8.82964e-05
-0.00351633
-0.000473669
-0.00309764
-0.000834951
-0.00253526
-0.00111803
-0.00189087
-0.00126972
-0.00124482
-0.00125216
-0.000682377
-0.00105885
-0.000273596
-0.000727316
-5.21263e-05
-0.000342557
-3.445e-05
-0.000172496
0.000326205
-0.000591414
0.000917448
-0.00117498
0.00136629
-0.00185516
0.00165013
-0.00257396
0.00177976
-0.00327982
0.0017698
-0.00392431
0.00162904
-0.00446038
0.00136062
-0.00484279
0.000968132
-0.00503111
0.0004637
-0.00499469
-0.000124717
-0.00471881
-0.000749548
-0.00421172
-0.00134204
-0.00351036
-0.00181939
-0.00268314
-0.00209695
-0.00182615
-0.00210915
-0.00104958
-0.00183542
-0.000453819
-0.00132307
-0.00010184
-0.000694536
-0.00013629
-0.000227381
0.000553586
-0.000760702
0.00145077
-0.00148549
0.00209108
-0.0023155
0.00248013
-0.00318303
0.0026473
-0.00403109
0.00261785
-0.00480741
0.00240536
-0.00546131
0.00201452
-0.00594324
0.00145006
-0.00620695
0.000727412
-0.00621397
-0.000117699
-0.00593951
-0.00102401
-0.0053812
-0.00190035
-0.0045679
-0.00263269
-0.00356762
-0.00309722
-0.00248943
-0.00318734
-0.00147273
-0.00285213
-0.000659691
-0.00213611
-0.000156328
-0.0011979
-0.000292618
-0.000273711
0.000827296
-0.000904778
0.00208184
-0.0017512
0.00293751
-0.00271123
0.00344016
-0.00370975
0.00364582
-0.00468695
0.00359505
-0.00558976
0.00330816
-0.00636667
0.00279144
-0.00696578
0.00204917
-0.00733528
0.00109692
-0.00742709
-2.58884e-05
-0.00720128
-0.00124983
-0.00663765
-0.00246397
-0.00574745
-0.00352289
-0.00458887
-0.0042558
-0.00327823
-0.00449798
-0.00198691
-0.00414344
-0.00091233
-0.00321069
-0.000222833
-0.0018874
-0.000515451
-0.000309591
0.00113689
-0.00101734
0.00278959
-0.00196034
0.00388051
-0.00302513
0.00450495
-0.0041319
0.00475259
-0.00522064
0.0046838
-0.0062403
0.00432782
-0.00714143
0.00369257
-0.00787213
0.00277986
-0.00837649
0.00160128
-0.00859522
0.000192844
-0.00847217
-0.00137289
-0.00796186
-0.00297428
-0.00704782
-0.00443693
-0.00576525
-0.00553837
-0.00422545
-0.00603778
-0.00262787
-0.00574103
-0.00123721
-0.00460136
-0.000310816
-0.00281378
-0.000826268
-0.000333125
0.00147001
-0.00109228
0.00354874
-0.00210093
0.00488915
-0.00323795
0.00564197
-0.00442152
0.00593616
-0.00559393
0.00585621
-0.00670888
0.00544277
-0.00772213
0.00470583
-0.00858513
0.00364286
-0.00924095
0.0022571
-0.00962269
0.00057459
-0.00965641
-0.00133917
-0.00926936
-0.00336134
-0.00840796
-0.00529832
-0.00706812
-0.00687822
-0.00533511
-0.00777078
-0.00342008
-0.00765606
-0.00165894
-0.0063625
-0.000430831
-0.00404189
-0.0012571
-0.000343063
0.00181308
-0.00112508
0.00433076
-0.00216292
0.00592699
-0.00333138
0.00681042
-0.00454894
0.00715373
-0.00576238
0.00706965
-0.00693282
0.00661321
-0.00802472
0.00579772
-0.00899734
0.00461548
-0.00979828
0.00305804
-0.0103589
0.00113519
-0.0105931
-0.00110497
-0.0104027
-0.00355171
-0.00969217
-0.00600887
-0.00840183
-0.00816856
-0.00656228
-0.00961033
-0.00436298
-0.00985535
-0.00219621
-0.00852927
-0.000594244
-0.00564386
-0.00185134
-0.000339939
0.00215301
-0.00111555
0.00510637
-0.00214237
0.00695381
-0.00329366
0.00796172
-0.00449015
0.00835021
-0.00568501
0.00826452
-0.00684934
0.00777754
-0.00795988
0.00690825
-0.00898899
0.0056446
-0.00989611
0.00396516
-0.0106202
0.00185923
-0.0110728
-0.000652282
-0.0111408
-0.00348379
-0.0106888
-0.00646087
-0.00959135
-0.00926596
-0.00779378
-0.0114079
-0.00541368
-0.0122354
-0.00285408
-0.0110889
-0.000812834
-0.00768511
-0.00266418
-0.000327635
0.00248065
-0.00107132
0.00585005
-0.00204677
0.00792926
-0.00312682
0.00904177
-0.00423632
0.00945972
-0.00533709
0.00936528
-0.00641272
0.00885317
-0.00745569
0.00795122
-0.00845659
0.00664549
-0.00939434
0.00490291
-0.0102269
0.00269184
-0.0108743
-4.91794e-06
-0.0112309
-0.00312725
-0.0111313
-0.00656042
-0.0103875
-0.0100097
-0.00883738
-0.0129581
-0.00646832
-0.0146045
-0.00361177
-0.0139454
-0.00109726
-0.0101996
-0.00376144
-0.000315436
0.00279609
-0.00101213
0.00654675
-0.00190081
0.00881794
-0.00285374
0.0099947
-0.00380294
0.0104089
-0.00472231
0.0102847
-0.005611
0.00974185
-0.00648012
0.00882034
-0.00734219
0.00750757
-0.00820154
0.00576226
-0.00904306
0.00353336
-0.00982565
0.000777671
-0.0104449
-0.00250801
-0.0107464
-0.00625886
-0.0104985
-0.0102577
-0.00942998
-0.0140266
-0.00734947
-0.016685
-0.00440617
-0.0168887
-0.00145301
-0.0131528
-0.00521445
-0.000321033
0.00311712
-0.000974523
0.00720024
-0.00175129
0.00959471
-0.00252279
0.0107662
-0.00323464
0.0111208
-0.0038792
0.0109292
-0.00447559
0.0103382
-0.00505621
0.00940095
-0.00565744
0.0081088
-0.00631166
0.00641648
-0.00703796
0.00425966
-0.00782981
0.00156952
-0.00863108
-0.00170673
-0.00931376
-0.00557618
-0.00964342
-0.00992801
-0.00927067
-0.0143993
-0.00780926
-0.0181464
-0.00511469
-0.0195833
-0.00187206
-0.0163954
-0.00708651
-0.000375341
0.00349246
-0.00101696
0.00784186
-0.00166895
0.0102467
-0.00220554
0.0113028
-0.00259932
0.0115145
-0.00287238
0.0112023
-0.0030703
0.0105362
-0.00324909
0.00957975
-0.00346854
0.00832825
-0.00378743
0.00673537
-0.00425769
0.00472992
-0.00491455
0.00222638
-0.00575719
-0.000864101
-0.00671791
-0.00461546
-0.0076105
-0.00903542
-0.00807034
-0.0139395
-0.00755194
-0.0186648
-0.00554438
-0.0215909
-0.00231894
-0.0196208
-0.00940545
-0.000530979
0.00402344
-0.0012233
0.00853418
-0.00174045
0.0107638
-0.00197684
0.0115392
-0.00195811
0.0114958
-0.00175397
0.0109981
-0.00144525
0.0102274
-0.00111368
0.00924817
-0.000840044
0.00805462
-0.000704468
0.0065998
-0.000785375
0.00481083
-0.00115545
0.00259645
-0.00187026
-0.000149287
-0.00294094
-0.00354478
-0.00427822
-0.00769814
-0.00558832
-0.0126294
-0.00626245
-0.0179907
-0.00542944
-0.0224239
-0.00270998
-0.0223403
-0.0121154
-0.000870307
0.00489374
-0.00168899
0.00935287
-0.0020223
0.0110972
-0.00184014
0.011357
-0.00126881
0.0109245
-0.000451135
0.0101805
0.000487276
0.00928904
0.00143889
0.00829655
0.00230644
0.00718707
0.00299594
0.0059103
0.00341158
0.00439518
0.00345367
0.00255436
0.00302046
0.000283925
0.00202421
-0.00254853
0.000430963
-0.0061049
-0.0016207
-0.0105777
-0.00360873
-0.0160027
-0.00441973
-0.0216129
-0.00288217
-0.0238779
-0.0149976
-0.00149599
0.00638974
-0.00241533
0.0102722
-0.00233876
0.0110206
-0.00146273
0.010481
-9.13552e-05
0.0095531
0.00153521
0.0085539
0.00324668
0.00757757
0.00491859
0.00662465
0.00644913
0.00565653
0.00774267
0.00461676
0.0086989
0.00343895
0.00920555
0.00204771
0.00913223
0.000357246
0.00833664
-0.00175293
0.00667249
-0.00444075
0.00407973
-0.00798497
0.000834065
-0.012757
-0.00200933
-0.0187695
-0.00250443
-0.0233828
-0.017502
-0.00234149
0.00873123
-0.00282208
0.0107528
-0.00159028
0.00978878
0.000565787
0.00832493
0.00311002
0.00700886
0.0057439
0.00592003
0.0083014
0.00502006
0.0106816
0.00424442
0.0128086
0.00352959
0.0146082
0.00281716
0.015995
0.00205213
0.016863
0.00117965
0.017076
0.000144304
0.0164712
-0.00114812
0.0148341
-0.00280363
0.0119293
-0.00508017
0.00764513
-0.00847287
0.00260894
-0.0137333
-0.000909875
-0.019864
-0.0184119
-0.00200228
0.0107335
0.000357716
0.0083928
0.00431779
0.00582871
0.00833058
0.00431214
0.012086
0.00325343
0.0154859
0.00252017
0.0185079
0.00199802
0.021153
0.00159933
0.023416
0.00126653
0.0252734
0.000959829
0.0266767
0.000648828
0.027547
0.000309307
0.0277747
-8.33346e-05
0.0272075
-0.000580913
0.0256234
-0.00121957
0.0226929
-0.00214966
0.0179491
-0.00372908
0.0109486
-0.00673283
0.00302401
-0.0119393
-0.0153879
0.0107335
0.0191263
0.024955
0.0292672
0.0325206
0.0350408
0.0370388
0.0386381
0.0399046
0.0408645
0.0415133
0.0418226
0.0417393
0.0411584
0.0399388
0.0377891
0.03406
0.0273272
0.0153879
)
;

boundaryField
{
    movingWall
    {
        type            calculated;
        value           uniform 0;
    }
    fixedWalls
    {
        type            calculated;
        value           uniform 0;
    }
    frontAndBack
    {
        type            empty;
    }
}


// ************************************************************************* //
