/*--------------------------------*- C++ -*----------------------------------*\
  =========                 |
  \\      /  F ield         | OpenFOAM: The Open Source CFD Toolbox
   \\    /   O peration     | Website:  https://openfoam.org
    \\  /    A nd           | Version:  13
     \\/     M anipulation  |
\*---------------------------------------------------------------------------*/
FoamFile
{
    format      ascii;
    class       volVectorField;
    location    "14";
    object      U;
}
// * * * * * * * * * * * * * * * * * * * * * * * * * * * * * * * * * * * * * //

dimensions      [0 1 -1 0 0 0 0];

internalField   nonuniform List<vector> 
400
(
(0.000212633 -0.000212793 0)
(-9.48916e-05 -1.43542e-05 0)
(-0.00151204 0.00020218 0)
(-0.00375439 0.000339904 0)
(-0.00649703 0.000412243 0)
(-0.00944559 0.000440272 0)
(-0.0123514 0.000434503 0)
(-0.0149824 0.000394466 0)
(-0.0170996 0.000313703 0)
(-0.0184579 0.000186683 0)
(-0.0188318 1.5727e-05 0)
(-0.0180658 -0.000186254 0)
(-0.0161339 -0.000387468 0)
(-0.0131892 -0.000546219 0)
(-0.00958712 -0.00061842 0)
(-0.00585408 -0.000571879 0)
(-0.00259664 -0.000400327 0)
(-0.000348616 -0.000134759 0)
(0.000582177 0.000142635 0)
(0.00031907 0.000305927 0)
(2.02623e-06 9.26626e-05 0)
(-0.0020126 0.00186935 0)
(-0.00639752 0.00365705 0)
(-0.0125096 0.00489175 0)
(-0.0196369 0.00554354 0)
(-0.0271272 0.00568246 0)
(-0.0343789 0.00535872 0)
(-0.0408147 0.00457993 0)
(-0.04586 0.00333736 0)
(-0.0489613 0.00165049 0)
(-0.0496511 -0.000389459 0)
(-0.0476394 -0.00259326 0)
(-0.0429243 -0.00466908 0)
(-0.0358823 -0.00626121 0)
(-0.0272919 -0.00702358 0)
(-0.0182737 -0.00672327 0)
(-0.0101119 -0.00534665 0)
(-0.0039675 -0.00317678 0)
(-0.000526195 -0.000843618 0)
(0.000243516 0.000610821 0)
(-0.000277018 0.00167732 0)
(-0.00437503 0.0064167 0)
(-0.0117952 0.0105826 0)
(-0.0214653 0.0133979 0)
(-0.0323584 0.0148201 0)
(-0.0435879 0.0149664 0)
(-0.054317 0.0139245 0)
(-0.063735 0.0117181 0)
(-0.0710462 0.00836225 0)
(-0.0755044 0.00395268 0)
(-0.0764946 -0.00125082 0)
(-0.073646 -0.006774 0)
(-0.0669572 -0.0119363 0)
(-0.0569037 -0.015927 0)
(-0.0444826 -0.0179624 0)
(-0.0311602 -0.0175068 0)
(-0.0186747 -0.0145081 0)
(-0.00868179 -0.00957438 0)
(-0.00231715 -0.00402905 0)
(8.86649e-05 6.23712e-05 0)
(-0.000530219 0.00453485 0)
(-0.00666093 0.0135808 0)
(-0.0169983 0.020767 0)
(-0.0299688 0.0254309 0)
(-0.0442328 0.0276457 0)
(-0.0587303 0.0276194 0)
(-0.0724741 0.0254894 0)
(-0.084512 0.0213035 0)
(-0.0939115 0.0151155 0)
(-0.0997958 0.00712238 0)
(-0.101427 -0.00221247 0)
(-0.0983192 -0.0120883 0)
(-0.0903784 -0.0213703 0)
(-0.0780354 -0.0287044 0)
(-0.0623423 -0.032748 0)
(-0.0449808 -0.0325211 0)
(-0.0281021 -0.0278125 0)
(-0.0139385 -0.0195097 0)
(-0.00427648 -0.00968428 0)
(-3.70669e-05 -0.00145684 0)
(-0.0007476 0.00856781 0)
(-0.00871358 0.0231729 0)
(-0.0217065 0.0339352 0)
(-0.0376616 0.040622 0)
(-0.0549483 0.0435925 0)
(-0.0723787 0.0432227 0)
(-0.0888822 0.0397273 0)
(-0.103437 0.033184 0)
(-0.115034 0.0236819 0)
(-0.1227 0.0115079 0)
(-0.125562 -0.0026881 0)
(-0.122954 -0.0177936 0)
(-0.114563 -0.0322101 0)
(-0.100613 -0.0439779 0)
(-0.0820442 -0.0510541 0)
(-0.0606386 -0.0517937 0)
(-0.0389665 -0.0455795 0)
(-0.0200016 -0.0334087 0)
(-0.00646868 -0.0181018 0)
(-0.000142681 -0.00399616 0)
(-0.000926696 0.0136217 0)
(-0.0104496 0.0349071 0)
(-0.0257231 0.0497553 0)
(-0.0442572 0.0586301 0)
(-0.0641788 0.0623475 0)
(-0.0842195 0.061543 0)
(-0.103283 0.0565455 0)
(-0.12034 0.047465 0)
(-0.134358 0.0344018 0)
(-0.144291 0.0176842 0)
(-0.149118 -0.00191984 0)
(-0.147924 -0.0230426 0)
(-0.140055 -0.0436729 0)
(-0.125355 -0.061205 0)
(-0.10445 -0.0727303 0)
(-0.0790486 -0.0756276 0)
(-0.0520887 -0.0684697 0)
(-0.0274471 -0.0520292 0)
(-0.00916187 -0.0298194 0)
(-0.000262835 -0.00770793 0)
(-0.00106174 0.0195061 0)
(-0.0117955 0.0484056 0)
(-0.028869 0.0677835 0)
(-0.0494631 0.0790148 0)
(-0.071527 0.0835253 0)
(-0.0937608 0.0823026 0)
(-0.115098 0.0758313 0)
(-0.13456 0.0642536 0)
(-0.151146 0.0476416 0)
(-0.163778 0.0262893 0)
(-0.171289 0.000975658 0)
(-0.172493 -0.0268097 0)
(-0.166313 -0.0547299 0)
(-0.152037 -0.0795526 0)
(-0.129734 -0.0973614 0)
(-0.100763 -0.104189 0)
(-0.0682223 -0.0972149 0)
(-0.0369407 -0.0763912 0)
(-0.0127088 -0.045692 0)
(-0.000441866 -0.0129208 0)
(-0.00114523 0.0259921 0)
(-0.0126802 0.063203 0)
(-0.0309707 0.087461 0)
(-0.0529734 0.101206 0)
(-0.0765277 0.1066 0)
(-0.100349 0.105071 0)
(-0.12345 0.0973066 0)
(-0.144965 0.0834824 0)
(-0.16399 0.0635998 0)
(-0.17948 0.0378284 0)
(-0.190196 0.00682365 0)
(-0.194703 -0.0279826 0)
(-0.191477 -0.0640881 0)
(-0.179146 -0.097753 0)
(-0.156968 -0.124006 0)
(-0.125557 -0.137188 0)
(-0.0877365 -0.132352 0)
(-0.0490736 -0.107656 0)
(-0.0174995 -0.0668961 0)
(-0.000734925 -0.0201677 0)
(-0.00117292 0.0328152 0)
(-0.0130568 0.0787542 0)
(-0.0318951 0.10811 0)
(-0.0545189 0.124472 0)
(-0.0787168 0.130838 0)
(-0.103259 0.129162 0)
(-0.127286 0.120384 0)
(-0.150103 0.10473 0)
(-0.17098 0.0820993 0)
(-0.189012 0.0524535 0)
(-0.203 0.0161814 0)
(-0.211386 -0.0255321 0)
(-0.212285 -0.0702721 0)
(-0.203658 -0.114047 0)
(-0.183756 -0.150967 0)
(-0.151997 -0.1735 0)
(-0.110248 -0.173804 0)
(-0.0641752 -0.146843 0)
(-0.0239372 -0.0948519 0)
(-0.00121785 -0.0302039 0)
(-0.00115142 0.0396985 0)
(-0.012941 0.0944657 0)
(-0.0316184 0.128952 0)
(-0.0539631 0.147914 0)
(-0.0777586 0.155262 0)
(-0.101864 0.153558 0)
(-0.125591 0.144061 0)
(-0.148472 0.12708 0)
(-0.170042 0.10241 0)
(-0.189655 0.0697531 0)
(-0.206327 0.0291154 0)
(-0.218565 -0.0187672 0)
(-0.22435 -0.0718459 0)
(-0.221127 -0.1263 0)
(-0.206093 -0.175712 0)
(-0.177094 -0.210823 0)
(-0.134207 -0.220349 0)
(-0.0820403 -0.194354 0)
(-0.0323961 -0.131033 0)
(-0.00200408 -0.0440226 0)
(-0.00110851 0.0464018 0)
(-0.0124646 0.109764 0)
(-0.0303154 0.149162 0)
(-0.0514272 0.170491 0)
(-0.0736102 0.178653 0)
(-0.0958541 0.176899 0)
(-0.117685 0.166887 0)
(-0.138923 0.149066 0)
(-0.159447 0.12316 0)
(-0.178997 0.0886135 0)
(-0.196986 0.0450017 0)
(-0.212216 -0.00752146 0)
(-0.22288 -0.0677457 0)
(-0.22625 -0.132338 0)
(-0.218653 -0.195061 0)
(-0.196238 -0.245558 0)
(-0.156537 -0.269112 0)
(-0.101548 -0.249306 0)
(-0.043114 -0.176596 0)
(-0.00326727 -0.0628558 0)
(-0.00110837 0.0528063 0)
(-0.011942 0.124209 0)
(-0.0284609 0.167955 0)
(-0.0474171 0.191086 0)
(-0.066679 0.199601 0)
(-0.0854397 0.197537 0)
(-0.103506 0.187026 0)
(-0.121041 0.168728 0)
(-0.138328 0.14236 0)
(-0.155577 0.107158 0)
(-0.17273 0.0622729 0)
(-0.189294 0.00718821 0)
(-0.203879 -0.0578208 0)
(-0.213942 -0.130544 0)
(-0.215618 -0.205743 0)
(-0.203618 -0.273094 0)
(-0.172563 -0.315326 0)
(-0.120251 -0.308782 0)
(-0.0559649 -0.231768 0)
(-0.00526242 -0.0881239 0)
(-0.00127784 0.0590491 0)
(-0.0119601 0.137646 0)
(-0.0269291 0.184704 0)
(-0.0429171 0.208587 0)
(-0.0579118 0.216592 0)
(-0.0714597 0.213644 0)
(-0.0837583 0.202407 0)
(-0.0953795 0.183807 0)
(-0.107052 0.157622 0)
(-0.1195 0.122963 0)
(-0.133278 0.0786381 0)
(-0.148591 0.023496 0)
(-0.164904 -0.0430639 0)
(-0.180497 -0.120452 0)
(-0.191878 -0.205232 0)
(-0.193157 -0.288603 0)
(-0.1764 -0.352633 0)
(-0.134136 -0.3673 0)
(-0.070071 -0.294968 0)
(-0.0083222 -0.121268 0)
(-0.00185505 0.0657291 0)
(-0.0135049 0.150383 0)
(-0.0270723 0.199026 0)
(-0.0393863 0.221929 0)
(-0.0487112 0.228059 0)
(-0.0552312 0.223317 0)
(-0.0597136 0.210896 0)
(-0.0632231 0.191986 0)
(-0.0669443 0.16646 0)
(-0.0720839 0.133389 0)
(-0.0797767 0.0913838 0)
(-0.0909511 0.0388415 0)
(-0.106047 -0.0257368 0)
(-0.124547 -0.103255 0)
(-0.144175 -0.192665 0)
(-0.159662 -0.28822 0)
(-0.161767 -0.374073 0)
(-0.137732 -0.416888 0)
(-0.0832769 -0.361846 0)
(-0.0127794 -0.163379 0)
(-0.00329268 0.0742682 0)
(-0.0181398 0.1634 0)
(-0.030686 0.210808 0)
(-0.0384756 0.230055 0)
(-0.0404278 0.232359 0)
(-0.0378584 0.224606 0)
(-0.0323623 0.21039 0)
(-0.0255943 0.191053 0)
(-0.0191822 0.16652 0)
(-0.0147332 0.135864 0)
(-0.0138394 0.0976184 0)
(-0.0180377 0.0499588 0)
(-0.0286766 -0.00916554 0)
(-0.0465681 -0.0818467 0)
(-0.071272 -0.169409 0)
(-0.0994822 -0.270201 0)
(-0.122769 -0.373501 0)
(-0.124479 -0.447908 0)
(-0.0915859 -0.424468 0)
(-0.0187131 -0.214479 0)
(-0.00636972 0.0873632 0)
(-0.0280713 0.178137 0)
(-0.0394165 0.219671 0)
(-0.0407941 0.23135 0)
(-0.0326169 0.227318 0)
(-0.0181161 0.215203 0)
(-2.62404e-05 0.198634 0)
(0.0193335 0.178834 0)
(0.0379486 0.155646 0)
(0.0539398 0.128118 0)
(0.0654309 0.0947995 0)
(0.0704837 0.0538617 0)
(0.0670613 0.00311515 0)
(0.0532035 -0.0601144 0)
(0.0273789 -0.138832 0)
(-0.0100117 -0.235503 0)
(-0.053953 -0.346906 0)
(-0.0867374 -0.450202 0)
(-0.0885719 -0.470722 0)
(-0.0253109 -0.27218 0)
(-0.0125282 0.110606 0)
(-0.0452677 0.196651 0)
(-0.051569 0.224421 0)
(-0.0410681 0.22296 0)
(-0.0173045 0.209659 0)
(0.0135988 0.192037 0)
(0.0476379 0.172983 0)
(0.0819734 0.153115 0)
(0.114431 0.131946 0)
(0.143101 0.108421 0)
(0.166069 0.0811541 0)
(0.181261 0.0484852 0)
(0.18625 0.00843906 0)
(0.178363 -0.0415762 0)
(0.15452 -0.105089 0)
(0.112263 -0.187404 0)
(0.0510447 -0.29329 0)
(-0.0144261 -0.414426 0)
(-0.0643877 -0.485053 0)
(-0.0295967 -0.330407 0)
(-0.0216102 0.148434 0)
(-0.0652501 0.213113 0)
(-0.0494613 0.215016 0)
(-0.0131595 0.195003 0)
(0.0356953 0.171509 0)
(0.0884821 0.1495 0)
(0.140973 0.129762 0)
(0.19073 0.111699 0)
(0.236119 0.0942865 0)
(0.275724 0.0763506 0)
(0.307998 0.05665 0)
(0.3311 0.0338509 0)
(0.342586 0.00642446 0)
(0.339642 -0.0275855 0)
(0.31835 -0.0711702 0)
(0.274523 -0.130216 0)
(0.202067 -0.214959 0)
(0.107866 -0.334952 0)
(-0.00324671 -0.451438 0)
(-0.0232719 -0.378712 0)
(-0.0274675 0.229352 0)
(-0.0364851 0.223131 0)
(0.0465528 0.176941 0)
(0.127004 0.13871 0)
(0.205512 0.109456 0)
(0.277349 0.0878288 0)
(0.341605 0.0715371 0)
(0.398264 0.0585537 0)
(0.447382 0.047375 0)
(0.488717 0.0368514 0)
(0.521569 0.0260308 0)
(0.544723 0.0140542 0)
(0.55623 4.14236e-05 0)
(0.553757 -0.0170013 0)
(0.533269 -0.0390584 0)
(0.490522 -0.0704362 0)
(0.415276 -0.120925 0)
(0.304872 -0.213374 0)
(0.125861 -0.348317 0)
(0.0236628 -0.378787 0)
(0.214445 0.135802 0)
(0.285153 0.0984557 0)
(0.444673 0.0569179 0)
(0.54792 0.0365826 0)
(0.621647 0.0241649 0)
(0.678208 0.0163156 0)
(0.722757 0.0113316 0)
(0.758328 0.00800444 0)
(0.786757 0.00557342 0)
(0.80894 0.00357388 0)
(0.82506 0.00169868 0)
(0.83479 -0.000265694 0)
(0.837261 -0.00250217 0)
(0.831159 -0.00504706 0)
(0.813534 -0.00849962 0)
(0.781939 -0.0135047 0)
(0.724084 -0.0231778 0)
(0.635279 -0.0406033 0)
(0.431311 -0.0912964 0)
(0.270899 -0.153523 0)
)
;

boundaryField
{
    movingWall
    {
        type            fixedValue;
        value           uniform (1 0 0);
    }
    fixedWalls
    {
        type            fixedValue;
        value           uniform (0 0 0);
    }
    frontAndBack
    {
        type            empty;
    }
}


// ************************************************************************* //
