/*--------------------------------*- C++ -*----------------------------------*\
  =========                 |
  \\      /  F ield         | OpenFOAM: The Open Source CFD Toolbox
   \\    /   O peration     | Website:  https://openfoam.org
    \\  /    A nd           | Version:  13
     \\/     M anipulation  |
\*---------------------------------------------------------------------------*/
FoamFile
{
    format      ascii;
    class       volVectorField;
    location    "14";
    object      U_0;
}
// * * * * * * * * * * * * * * * * * * * * * * * * * * * * * * * * * * * * * //

dimensions      [0 1 -1 0 0 0 0];

internalField   nonuniform List<vector> 
400
(
(0.000212605 -0.00021281 0)
(-9.49276e-05 -1.43577e-05 0)
(-0.00151205 0.000202177 0)
(-0.00375436 0.000339899 0)
(-0.00649696 0.000412237 0)
(-0.00944548 0.000440266 0)
(-0.0123513 0.000434497 0)
(-0.0149822 0.00039446 0)
(-0.0170994 0.000313699 0)
(-0.0184577 0.00018668 0)
(-0.0188315 1.57274e-05 0)
(-0.0180656 -0.00018625 0)
(-0.0161337 -0.000387462 0)
(-0.0131891 -0.00054621 0)
(-0.00958704 -0.000618411 0)
(-0.00585405 -0.000571873 0)
(-0.00259665 -0.000400325 0)
(-0.000348633 -0.000134763 0)
(0.000582163 0.000142625 0)
(0.000319066 0.000305919 0)
(2.0179e-06 9.26415e-05 0)
(-0.00201259 0.00186932 0)
(-0.00639745 0.00365699 0)
(-0.0125095 0.00489167 0)
(-0.0196367 0.00554345 0)
(-0.0271268 0.00568237 0)
(-0.0343784 0.00535864 0)
(-0.0408141 0.00457986 0)
(-0.0458593 0.00333732 0)
(-0.0489606 0.00165047 0)
(-0.0496504 -0.000389435 0)
(-0.0476387 -0.0025932 0)
(-0.0429238 -0.00466899 0)
(-0.0358819 -0.00626111 0)
(-0.0272916 -0.00702348 0)
(-0.0182735 -0.00672319 0)
(-0.0101118 -0.0053466 0)
(-0.0039675 -0.00317676 0)
(-0.000526208 -0.000843637 0)
(0.000243513 0.000610798 0)
(-0.000277016 0.0016773 0)
(-0.00437496 0.0064166 0)
(-0.011795 0.0105824 0)
(-0.0214649 0.0133977 0)
(-0.0323578 0.0148199 0)
(-0.0435872 0.0149662 0)
(-0.0543162 0.0139243 0)
(-0.063734 0.0117179 0)
(-0.0710451 0.00836216 0)
(-0.0755033 0.00395267 0)
(-0.0764935 -0.00125074 0)
(-0.073645 -0.00677384 0)
(-0.0669563 -0.0119361 0)
(-0.056903 -0.0159267 0)
(-0.0444821 -0.0179622 0)
(-0.0311599 -0.0175066 0)
(-0.0186746 -0.0145079 0)
(-0.00868174 -0.00957431 0)
(-0.00231715 -0.00402905 0)
(8.86622e-05 6.23429e-05 0)
(-0.00053021 0.00453478 0)
(-0.00666081 0.0135806 0)
(-0.016998 0.0207667 0)
(-0.0299683 0.0254305 0)
(-0.0442321 0.0276453 0)
(-0.0587293 0.027619 0)
(-0.0724729 0.0254891 0)
(-0.0845107 0.0213032 0)
(-0.0939101 0.0151154 0)
(-0.0997944 0.00712237 0)
(-0.101425 -0.00221232 0)
(-0.0983179 -0.012088 0)
(-0.0903773 -0.0213699 0)
(-0.0780345 -0.0287039 0)
(-0.0623416 -0.0327476 0)
(-0.0449803 -0.0325207 0)
(-0.0281019 -0.0278122 0)
(-0.0139384 -0.0195095 0)
(-0.00427646 -0.00968423 0)
(-3.70692e-05 -0.00145687 0)
(-0.000747587 0.00856767 0)
(-0.00871342 0.0231725 0)
(-0.0217061 0.0339347 0)
(-0.037661 0.0406214 0)
(-0.0549474 0.0435918 0)
(-0.0723776 0.0432221 0)
(-0.0888808 0.0397267 0)
(-0.103435 0.0331836 0)
(-0.115033 0.0236816 0)
(-0.122699 0.0115079 0)
(-0.125561 -0.00268787 0)
(-0.122952 -0.0177931 0)
(-0.114561 -0.0322095 0)
(-0.100612 -0.0439772 0)
(-0.0820433 -0.0510534 0)
(-0.060638 -0.051793 0)
(-0.0389661 -0.045579 0)
(-0.0200014 -0.0334084 0)
(-0.00646862 -0.0181017 0)
(-0.000142682 -0.00399616 0)
(-0.000926679 0.0136214 0)
(-0.0104495 0.0349065 0)
(-0.0257226 0.0497545 0)
(-0.0442564 0.0586292 0)
(-0.0641778 0.0623465 0)
(-0.0842183 0.0615421 0)
(-0.103282 0.0565447 0)
(-0.120339 0.0474645 0)
(-0.134357 0.0344015 0)
(-0.144289 0.0176842 0)
(-0.149116 -0.00191953 0)
(-0.147922 -0.023042 0)
(-0.140053 -0.0436721 0)
(-0.125354 -0.061204 0)
(-0.104449 -0.0727293 0)
(-0.0790478 -0.0756267 0)
(-0.0520882 -0.068469 0)
(-0.0274468 -0.0520287 0)
(-0.00916179 -0.0298192 0)
(-0.000262833 -0.0077079 0)
(-0.00106172 0.0195058 0)
(-0.0117953 0.0484048 0)
(-0.0288686 0.0677824 0)
(-0.0494624 0.0790136 0)
(-0.071526 0.0835241 0)
(-0.0937595 0.0823014 0)
(-0.115096 0.0758304 0)
(-0.134558 0.064253 0)
(-0.151144 0.0476413 0)
(-0.163776 0.0262893 0)
(-0.171287 0.000976026 0)
(-0.172491 -0.026809 0)
(-0.166312 -0.0547289 0)
(-0.152036 -0.0795515 0)
(-0.129733 -0.0973601 0)
(-0.100762 -0.104188 0)
(-0.0682217 -0.0972139 0)
(-0.0369404 -0.0763905 0)
(-0.0127087 -0.0456916 0)
(-0.000441862 -0.0129207 0)
(-0.00114521 0.0259916 0)
(-0.0126801 0.063202 0)
(-0.0309703 0.0874596 0)
(-0.0529727 0.101204 0)
(-0.0765267 0.106598 0)
(-0.100347 0.10507 0)
(-0.123449 0.0973055 0)
(-0.144964 0.0834816 0)
(-0.163988 0.0635994 0)
(-0.179479 0.0378284 0)
(-0.190194 0.00682407 0)
(-0.194702 -0.0279818 0)
(-0.191476 -0.064087 0)
(-0.179145 -0.0977517 0)
(-0.156967 -0.124004 0)
(-0.125556 -0.137187 0)
(-0.0877358 -0.132351 0)
(-0.0490732 -0.107655 0)
(-0.0174994 -0.0668955 0)
(-0.000734917 -0.0201675 0)
(-0.00117291 0.0328147 0)
(-0.0130566 0.078753 0)
(-0.0318948 0.108108 0)
(-0.0545183 0.12447 0)
(-0.078716 0.130836 0)
(-0.103258 0.12916 0)
(-0.127285 0.120383 0)
(-0.150101 0.104729 0)
(-0.170979 0.0820988 0)
(-0.189011 0.0524535 0)
(-0.202999 0.0161818 0)
(-0.211384 -0.0255313 0)
(-0.212284 -0.0702709 0)
(-0.203657 -0.114046 0)
(-0.183755 -0.150966 0)
(-0.151996 -0.173498 0)
(-0.110248 -0.173802 0)
(-0.0641748 -0.146842 0)
(-0.0239371 -0.0948511 0)
(-0.00121784 -0.0302037 0)
(-0.00115141 0.039698 0)
(-0.0129409 0.0944643 0)
(-0.0316182 0.12895 0)
(-0.0539627 0.147912 0)
(-0.0777581 0.15526 0)
(-0.101864 0.153556 0)
(-0.12559 0.144059 0)
(-0.148471 0.127079 0)
(-0.170041 0.10241 0)
(-0.189655 0.0697532 0)
(-0.206326 0.0291158 0)
(-0.218565 -0.0187663 0)
(-0.22435 -0.0718446 0)
(-0.221127 -0.126298 0)
(-0.206092 -0.17571 0)
(-0.177093 -0.210821 0)
(-0.134206 -0.220347 0)
(-0.08204 -0.194353 0)
(-0.0323959 -0.131032 0)
(-0.00200406 -0.0440223 0)
(-0.00110851 0.0464012 0)
(-0.0124646 0.109763 0)
(-0.0303154 0.14916 0)
(-0.0514271 0.170489 0)
(-0.0736101 0.178651 0)
(-0.095854 0.176898 0)
(-0.117685 0.166885 0)
(-0.138923 0.149065 0)
(-0.159447 0.12316 0)
(-0.178997 0.0886136 0)
(-0.196986 0.0450023 0)
(-0.212216 -0.0075205 0)
(-0.22288 -0.0677444 0)
(-0.22625 -0.132337 0)
(-0.218653 -0.195059 0)
(-0.196237 -0.245556 0)
(-0.156537 -0.26911 0)
(-0.101548 -0.249304 0)
(-0.0431138 -0.176595 0)
(-0.00326725 -0.0628554 0)
(-0.00110838 0.0528057 0)
(-0.0119421 0.124207 0)
(-0.028461 0.167953 0)
(-0.0474173 0.191084 0)
(-0.0666792 0.199599 0)
(-0.08544 0.197535 0)
(-0.103507 0.187024 0)
(-0.121042 0.168727 0)
(-0.138329 0.14236 0)
(-0.155578 0.107158 0)
(-0.172731 0.0622734 0)
(-0.189295 0.00718915 0)
(-0.20388 -0.0578197 0)
(-0.213942 -0.130542 0)
(-0.215618 -0.205741 0)
(-0.203618 -0.273092 0)
(-0.172563 -0.315324 0)
(-0.120251 -0.30878 0)
(-0.0559648 -0.231767 0)
(-0.0052624 -0.0881234 0)
(-0.00127786 0.0590486 0)
(-0.0119602 0.137644 0)
(-0.0269294 0.184702 0)
(-0.0429175 0.208585 0)
(-0.0579124 0.21659 0)
(-0.0714604 0.213642 0)
(-0.0837591 0.202405 0)
(-0.0953805 0.183806 0)
(-0.107053 0.157622 0)
(-0.119501 0.122963 0)
(-0.133279 0.0786386 0)
(-0.148592 0.0234968 0)
(-0.164905 -0.0430628 0)
(-0.180498 -0.120451 0)
(-0.191879 -0.205231 0)
(-0.193158 -0.288602 0)
(-0.176401 -0.352632 0)
(-0.134136 -0.367298 0)
(-0.0700709 -0.294966 0)
(-0.00832218 -0.121267 0)
(-0.00185508 0.0657287 0)
(-0.0135051 0.150382 0)
(-0.0270727 0.199024 0)
(-0.039387 0.221927 0)
(-0.0487122 0.228058 0)
(-0.0552324 0.223316 0)
(-0.059715 0.210895 0)
(-0.0632245 0.191985 0)
(-0.0669458 0.16646 0)
(-0.0720856 0.133389 0)
(-0.0797783 0.0913844 0)
(-0.0909527 0.0388423 0)
(-0.106049 -0.0257359 0)
(-0.124548 -0.103254 0)
(-0.144176 -0.192664 0)
(-0.159663 -0.288219 0)
(-0.161768 -0.374072 0)
(-0.137732 -0.416887 0)
(-0.083277 -0.361845 0)
(-0.0127794 -0.163378 0)
(-0.00329271 0.0742679 0)
(-0.0181401 0.163399 0)
(-0.0306866 0.210807 0)
(-0.0384765 0.230054 0)
(-0.0404291 0.232358 0)
(-0.0378598 0.224605 0)
(-0.032364 0.210389 0)
(-0.0255961 0.191052 0)
(-0.0191841 0.16652 0)
(-0.0147352 0.135864 0)
(-0.0138412 0.097619 0)
(-0.0180395 0.0499596 0)
(-0.0286783 -0.00916468 0)
(-0.0465697 -0.0818458 0)
(-0.0712733 -0.169408 0)
(-0.0994834 -0.2702 0)
(-0.12277 -0.3735 0)
(-0.12448 -0.447908 0)
(-0.091586 -0.424467 0)
(-0.0187131 -0.214479 0)
(-0.00636974 0.0873631 0)
(-0.0280716 0.178137 0)
(-0.0394171 0.21967 0)
(-0.0407951 0.231349 0)
(-0.0326183 0.227317 0)
(-0.0181177 0.215202 0)
(-2.80829e-05 0.198633 0)
(0.0193315 0.178833 0)
(0.0379466 0.155646 0)
(0.0539378 0.128118 0)
(0.065429 0.0948 0)
(0.0704819 0.0538624 0)
(0.0670597 0.00311586 0)
(0.053202 -0.0601137 0)
(0.0273776 -0.138831 0)
(-0.0100128 -0.235503 0)
(-0.0539538 -0.346906 0)
(-0.086738 -0.450201 0)
(-0.0885722 -0.470722 0)
(-0.0253109 -0.27218 0)
(-0.0125282 0.110606 0)
(-0.045268 0.19665 0)
(-0.0515696 0.224421 0)
(-0.041069 0.222959 0)
(-0.0173057 0.209659 0)
(0.0135973 0.192036 0)
(0.0476361 0.172983 0)
(0.0819715 0.153115 0)
(0.114429 0.131946 0)
(0.143099 0.108421 0)
(0.166068 0.0811545 0)
(0.181259 0.0484857 0)
(0.186249 0.0084396 0)
(0.178362 -0.0415757 0)
(0.154519 -0.105089 0)
(0.112262 -0.187403 0)
(0.051044 -0.293289 0)
(-0.0144266 -0.414425 0)
(-0.064388 -0.485053 0)
(-0.0295968 -0.330407 0)
(-0.0216102 0.148434 0)
(-0.0652502 0.213112 0)
(-0.0494616 0.215016 0)
(-0.0131601 0.195002 0)
(0.0356944 0.171509 0)
(0.088481 0.1495 0)
(0.140972 0.129761 0)
(0.190728 0.111699 0)
(0.236118 0.0942864 0)
(0.275722 0.0763507 0)
(0.307997 0.0566502 0)
(0.331098 0.0338512 0)
(0.342584 0.00642481 0)
(0.339641 -0.0275851 0)
(0.318349 -0.0711698 0)
(0.274522 -0.130216 0)
(0.202067 -0.214958 0)
(0.107865 -0.334952 0)
(-0.0032469 -0.451438 0)
(-0.0232719 -0.378712 0)
(-0.0274675 0.229353 0)
(-0.0364851 0.223131 0)
(0.0465528 0.176941 0)
(0.127004 0.13871 0)
(0.205512 0.109456 0)
(0.277348 0.0878286 0)
(0.341604 0.0715369 0)
(0.398263 0.0585536 0)
(0.447381 0.047375 0)
(0.488716 0.0368515 0)
(0.521568 0.0260309 0)
(0.544723 0.0140543 0)
(0.556229 4.15895e-05 0)
(0.553756 -0.0170011 0)
(0.533268 -0.0390583 0)
(0.490522 -0.0704361 0)
(0.415276 -0.120925 0)
(0.304872 -0.213374 0)
(0.125861 -0.348317 0)
(0.0236628 -0.378787 0)
(0.214445 0.135802 0)
(0.285153 0.0984557 0)
(0.444673 0.0569179 0)
(0.54792 0.0365826 0)
(0.621647 0.0241649 0)
(0.678208 0.0163156 0)
(0.722756 0.0113316 0)
(0.758327 0.00800443 0)
(0.786757 0.00557342 0)
(0.808939 0.00357389 0)
(0.82506 0.0016987 0)
(0.83479 -0.000265668 0)
(0.83726 -0.00250215 0)
(0.831158 -0.00504704 0)
(0.813534 -0.00849961 0)
(0.781939 -0.0135047 0)
(0.724084 -0.0231778 0)
(0.635279 -0.0406034 0)
(0.431311 -0.0912964 0)
(0.270899 -0.153523 0)
)
;

boundaryField
{
    movingWall
    {
        type            calculated;
        value           uniform (1 0 0);
    }
    fixedWalls
    {
        type            calculated;
        value           uniform (0 0 0);
    }
    frontAndBack
    {
        type            empty;
    }
}


// ************************************************************************* //
