/*--------------------------------*- C++ -*----------------------------------*\
  =========                 |
  \\      /  F ield         | OpenFOAM: The Open Source CFD Toolbox
   \\    /   O peration     | Website:  https://openfoam.org
    \\  /    A nd           | Version:  13
     \\/     M anipulation  |
\*---------------------------------------------------------------------------*/
FoamFile
{
    format      ascii;
    class       volScalarField;
    location    "50";
    object      p;
}
// * * * * * * * * * * * * * * * * * * * * * * * * * * * * * * * * * * * * * //

dimensions      [0 2 -2 0 0 0 0];

internalField   nonuniform List<scalar> 
400
(
7.70488e-09
-0.000572531
-0.00121615
-0.00171903
-0.00195933
-0.00188479
-0.0014706
-0.00070568
0.000401143
0.00180582
0.00341457
0.00507489
0.00659092
0.00775097
0.00837966
0.00839549
0.0078552
0.00696878
0.0060479
0.00549423
0.000569838
-2.04155e-05
-0.000569803
-0.000957206
-0.00113219
-0.00106211
-0.000726092
-0.00010937
0.000788625
0.0019393
0.00326965
0.00465999
0.00594057
0.00692969
0.00747412
0.00750166
0.00705907
0.00631869
0.00554312
0.00497252
0.00124557
0.000492858
-8.68172e-05
-0.000441492
-0.000606316
-0.000576456
-0.000337418
0.000132465
0.000849562
0.00180675
0.00295471
0.00419165
0.0053643
0.00629369
0.00681914
0.00685279
0.00642064
0.00566806
0.0048088
0.00403706
0.00174046
0.000763542
7.35453e-05
-0.000322046
-0.000537254
-0.000592894
-0.000478388
-0.000160299
0.000399896
0.00122195
0.00228155
0.00349274
0.00470158
0.00570961
0.00631928
0.00639805
0.00593341
0.00505046
0.00394829
0.00284431
0.00179538
0.000595582
-0.00022784
-0.000704938
-0.00101825
-0.00120737
-0.00125951
-0.00112314
-0.00073063
-2.79539e-05
0.000991631
0.00226348
0.00362996
0.00486114
0.00569858
0.00593222
0.00548031
0.0044354
0.00299983
0.00146199
0.00119463
-0.000203129
-0.00116342
-0.00175283
-0.00221152
-0.00259078
-0.00286938
-0.00297132
-0.00279204
-0.00223304
-0.00124417
0.000150417
0.00179275
0.00341975
0.00469014
0.00527464
0.00497181
0.00380559
0.00197892
-0.000104144
-0.000241706
-0.00180016
-0.00289235
-0.00362233
-0.00427781
-0.00491673
-0.00550517
-0.00593764
-0.00606466
-0.00572854
-0.00480701
-0.00328527
-0.00127043
0.000946605
0.0029262
0.00416978
0.00427918
0.00313546
0.000902524
-0.00185634
-0.00265205
-0.00432642
-0.00554132
-0.00643937
-0.00734721
-0.00832782
-0.00933396
-0.0102288
-0.0108113
-0.0108505
-0.0101336
-0.00853909
-0.00610715
-0.00311234
-8.65111e-05
0.00225496
0.00321257
0.0023952
-0.000177454
-0.00375304
-0.00612146
-0.00786178
-0.00918479
-0.0102719
-0.0114831
-0.0128894
-0.0144345
-0.015953
-0.0171897
-0.0178277
-0.0175354
-0.0160428
-0.0132532
-0.00935759
-0.00493612
-0.000941497
0.001508
0.0015545
-0.00113724
-0.00564689
-0.0106716
-0.0124237
-0.0138275
-0.0151021
-0.0166423
-0.0185359
-0.0207272
-0.0230305
-0.0251405
-0.0266492
-0.0270842
-0.0259776
-0.0230343
-0.0182542
-0.0121678
-0.00592223
-0.00114238
0.000602934
-0.00173148
-0.00719524
-0.0162606
-0.0179654
-0.0193958
-0.0208062
-0.0226416
-0.0250234
-0.0279114
-0.0311116
-0.0342776
-0.0369139
-0.0383954
-0.0380068
-0.0352842
-0.0298336
-0.0220052
-0.0130065
-0.00495991
-0.000375663
-0.00151612
-0.00772077
-0.022803
-0.0243901
-0.0257427
-0.0271485
-0.0291435
-0.0319107
-0.0354425
-0.0395494
-0.043855
-0.0477847
-0.05058
-0.0513772
-0.0491635
-0.0433941
-0.033989
-0.0219778
-0.00980603
-0.00102487
0.000279944
-0.0060001
-0.0302226
-0.0315863
-0.0326696
-0.0337921
-0.0356682
-0.03858
-0.042569
-0.0474551
-0.0528344
-0.0580627
-0.0622511
-0.0643107
-0.0630224
-0.0573321
-0.0466929
-0.0317051
-0.0148012
-0.000417179
0.0049655
2.27022e-05
-0.03856
-0.0394895
-0.0399613
-0.040327
-0.041635
-0.0443096
-0.0484456
-0.0538594
-0.060106
-0.0664655
-0.0719295
-0.0752216
-0.0748704
-0.0694215
-0.0578071
-0.0400022
-0.0180234
0.00327944
0.0146985
0.0135556
-0.0481748
-0.048157
-0.0474035
-0.0462842
-0.0464121
-0.0483713
-0.0522815
-0.0579132
-0.0647395
-0.0719354
-0.0783607
-0.0825613
-0.0828323
-0.0773739
-0.0646453
-0.0439371
-0.0165435
0.0130188
0.032931
0.0392806
-0.060235
-0.0579578
-0.0548673
-0.0512135
-0.0494273
-0.0501785
-0.0535204
-0.0590938
-0.0662201
-0.0739188
-0.0808795
-0.0854535
-0.085707
-0.07952
-0.064942
-0.0406114
-0.00697896
0.0328167
0.0647937
0.0836767
-0.0774815
-0.0694733
-0.0620875
-0.0545495
-0.0501391
-0.0493252
-0.0519045
-0.0572611
-0.0644863
-0.0723851
-0.0794401
-0.0837785
-0.0832186
-0.0752831
-0.0576215
-0.0282114
0.0133524
0.0666609
0.115752
0.154807
-0.108926
-0.0850402
-0.0697735
-0.0563917
-0.0485412
-0.0458813
-0.0476244
-0.0527151
-0.0599173
-0.0677771
-0.0745525
-0.0781402
-0.0761045
-0.0655427
-0.0436433
-0.00744518
0.044743
0.114933
0.188078
0.263281
-0.168693
-0.100746
-0.0730932
-0.0522883
-0.0413103
-0.0376998
-0.0394421
-0.0448656
-0.0524159
-0.0604471
-0.067074
-0.070048
-0.0666876
-0.0537885
-0.0278899
0.0154098
0.0800715
0.17276
0.285854
0.445985
-0.402754
-0.139031
-0.0734593
-0.0447303
-0.0305719
-0.0266177
-0.0290857
-0.0353736
-0.0436542
-0.0522075
-0.0591241
-0.0621457
-0.0586176
-0.0452141
-0.017451
0.0310786
0.108495
0.236657
0.427487
0.79368
)
;

boundaryField
{
    movingWall
    {
        type            zeroGradient;
    }
    fixedWalls
    {
        type            zeroGradient;
    }
    frontAndBack
    {
        type            empty;
    }
}


// ************************************************************************* //
