/*--------------------------------*- C++ -*----------------------------------*\
  =========                 |
  \\      /  F ield         | OpenFOAM: The Open Source CFD Toolbox
   \\    /   O peration     | Website:  https://openfoam.org
    \\  /    A nd           | Version:  13
     \\/     M anipulation  |
\*---------------------------------------------------------------------------*/
FoamFile
{
    format      ascii;
    class       volScalarField;
    location    "5";
    object      p;
}
// * * * * * * * * * * * * * * * * * * * * * * * * * * * * * * * * * * * * * //

dimensions      [0 2 -2 0 0 0 0];

internalField   nonuniform List<scalar> 
400
(
-1.11764e-08
-0.000469066
-0.000939134
-0.00125953
-0.00132464
-0.00109625
-0.000562539
0.000274723
0.00139787
0.00276367
0.0042926
0.00586248
0.00731525
0.0084779
0.00919973
0.00939828
0.00909898
0.00845713
0.00771614
0.00722629
0.000464478
-1.71423e-05
-0.00042005
-0.000649975
-0.000663878
-0.000437943
3.73572e-05
0.000763099
0.00172799
0.00289903
0.00421081
0.00556453
0.00682238
0.00783586
0.00847425
0.00866588
0.00843191
0.00789892
0.00727327
0.00677064
0.000958773
0.000357855
-6.88418e-05
-0.000271115
-0.000271683
-6.76991e-05
0.000344928
0.000971167
0.00180983
0.00284215
0.00401895
0.00525477
0.00642439
0.00738294
0.00799565
0.0081804
0.00794333
0.00739025
0.00668804
0.00600601
0.00128471
0.000507192
-6.98651e-06
-0.000236678
-0.00026386
-0.000105966
0.000235976
0.000772969
0.0015176
0.00246883
0.00359399
0.00482092
0.00602254
0.0070402
0.0077114
0.00791968
0.00764141
0.00696683
0.0060517
0.00508602
0.0012462
0.000288886
-0.000330996
-0.000615122
-0.000696892
-0.000609888
-0.000356933
8.25945e-05
0.000739325
0.00163445
0.00275443
0.00405296
0.00538887
0.00658162
0.00742195
0.00773332
0.0074387
0.0066045
0.00539123
0.00404806
0.000689509
-0.000436222
-0.0011661
-0.00152376
-0.00168759
-0.00170337
-0.00157214
-0.00125966
-0.000711941
0.000123637
0.00127453
0.0026875
0.00425588
0.00576276
0.00693219
0.00749353
0.0072765
0.00629644
0.00471826
0.00288838
-0.000518817
-0.00179513
-0.00263443
-0.00308395
-0.00336281
-0.00352681
-0.00357302
-0.00345045
-0.00307572
-0.00235538
-0.00121612
0.000345818
0.00223616
0.0042213
0.00594569
0.00700152
0.00706119
0.00602929
0.00404459
0.00159061
-0.0024945
-0.00389961
-0.00484646
-0.0054086
-0.00584398
-0.00621883
-0.0065268
-0.00669912
-0.00661773
-0.00613508
-0.00510683
-0.00344708
-0.00118973
0.00144317
0.00401701
0.0059404
0.00663443
0.00578235
0.00341015
0.000171864
-0.00533067
-0.00683944
-0.00789013
-0.00858568
-0.00922393
-0.00988573
-0.0105657
-0.0111802
-0.0115746
-0.0115354
-0.0108197
-0.00921514
-0.00663382
-0.00322413
0.000535004
0.0038387
0.00573975
0.00552157
0.00291346
-0.0012633
-0.0090911
-0.0106744
-0.011818
-0.0126564
-0.0135342
-0.0145557
-0.0157257
-0.0169537
-0.018052
-0.0187348
-0.0186362
-0.0173682
-0.0146476
-0.0104466
-0.0052005
9.43416e-05
0.00401511
0.00520061
0.00275342
-0.00244028
-0.0138079
-0.01543
-0.0166357
-0.0175923
-0.0187083
-0.0201263
-0.0218752
-0.0238703
-0.0259006
-0.0276103
-0.0284979
-0.027964
-0.0254434
-0.0206212
-0.0137366
-0.00586144
0.00107561
0.00480512
0.0032967
-0.00277802
-0.0194928
-0.0211027
-0.0222976
-0.0232766
-0.0245495
-0.0263198
-0.0286569
-0.0314956
-0.0346146
-0.0375984
-0.0398129
-0.0404332
-0.0385563
-0.0334751
-0.0250477
-0.0141988
-0.00323309
0.00450492
0.00519713
-0.00117039
-0.0261775
-0.0276819
-0.0287122
-0.029495
-0.0307156
-0.0326676
-0.0354753
-0.0391016
-0.0433231
-0.0476753
-0.0514059
-0.0534737
-0.0526375
-0.0477332
-0.0380845
-0.0241851
-0.00839027
0.00496792
0.00960888
0.00432623
-0.0340089
-0.0351992
-0.0357622
-0.0359421
-0.0367304
-0.0385413
-0.041558
-0.0457643
-0.0509277
-0.0565336
-0.0617223
-0.0652608
-0.0656038
-0.0611434
-0.0506027
-0.0338062
-0.0127192
0.00778993
0.0185344
0.0168609
-0.0434441
-0.0437975
-0.0433151
-0.0422226
-0.0420131
-0.0432286
-0.0460866
-0.0505567
-0.0563655
-0.0629238
-0.0692572
-0.0739556
-0.0752245
-0.0710275
-0.0595691
-0.0398974
-0.0132174
0.0158687
0.0353551
0.0411628
-0.0557321
-0.0539197
-0.0513006
-0.0479162
-0.0459748
-0.0460734
-0.0483828
-0.0527821
-0.0589019
-0.0660148
-0.0730054
-0.0782704
-0.0797696
-0.0751383
-0.0621013
-0.038973
-0.00605675
0.0335007
0.0653514
0.083892
-0.0736547
-0.0661845
-0.0594667
-0.0524165
-0.0479714
-0.0465151
-0.0480049
-0.0521126
-0.0582638
-0.0655571
-0.0726734
-0.0777911
-0.0786196
-0.072444
-0.0565535
-0.0285825
0.0120444
0.0653684
0.114442
0.1534
-0.106112
-0.0827941
-0.0683534
-0.0555853
-0.0477169
-0.0443483
-0.0448982
-0.0486373
-0.0546799
-0.0618715
-0.0686662
-0.07301
-0.0723563
-0.0636016
-0.0435698
-0.00894435
0.0422351
0.112142
0.185396
0.260579
-0.166789
-0.0993083
-0.0725866
-0.0524357
-0.041437
-0.0370877
-0.0375961
-0.0416237
-0.0479621
-0.0552558
-0.0618144
-0.0654478
-0.0634575
-0.0521452
-0.028031
0.0136954
0.0772745
0.16949
0.28253
0.442828
-0.400866
-0.137735
-0.0731718
-0.0451886
-0.0310796
-0.0264506
-0.027737
-0.0326542
-0.0397058
-0.0474531
-0.0541717
-0.0576575
-0.0551656
-0.0434151
-0.0173272
0.0297075
0.106035
0.233651
0.424359
0.79065
)
;

boundaryField
{
    movingWall
    {
        type            zeroGradient;
    }
    fixedWalls
    {
        type            zeroGradient;
    }
    frontAndBack
    {
        type            empty;
    }
}


// ************************************************************************* //
