/*--------------------------------*- C++ -*----------------------------------*\
  =========                 |
  \\      /  F ield         | OpenFOAM: The Open Source CFD Toolbox
   \\    /   O peration     | Website:  https://openfoam.org
    \\  /    A nd           | Version:  13
     \\/     M anipulation  |
\*---------------------------------------------------------------------------*/
FoamFile
{
    format      ascii;
    class       surfaceScalarField;
    location    "5";
    object      phi;
}
// * * * * * * * * * * * * * * * * * * * * * * * * * * * * * * * * * * * * * //

dimensions      [0 3 -1 0 0 0 0];

internalField   nonuniform List<scalar> 
760
(
3.53075e-07
-3.52952e-07
-3.8951e-05
3.9304e-05
-0.000118339
7.93882e-05
-0.000224287
0.000105948
-0.000343599
0.000119313
-0.000465249
0.00012165
-0.000579745
0.000114496
-0.000678046
9.83003e-05
-0.000750943
7.28973e-05
-0.000789342
3.83994e-05
-0.000785474
-3.86827e-06
-0.000734951
-5.05231e-05
-0.000639044
-9.59074e-05
-0.000506512
-0.000132531
-0.000353996
-0.000152516
-0.00020419
-0.000149806
-8.15491e-05
-0.000122641
-5.91654e-06
-7.56325e-05
1.60489e-05
-2.19654e-05
1.60488e-05
-4.15651e-05
4.12122e-05
-0.000179951
0.00017769
-0.000399785
0.000299222
-0.000674112
0.000380274
-0.000975265
0.000420466
-0.00127805
0.00042443
-0.0015594
0.000395854
-0.0017972
0.000336099
-0.00196972
0.000245414
-0.00205669
0.000125368
-0.00204213
-1.84287e-05
-0.00191788
-0.000174769
-0.00168855
-0.000325237
-0.00137425
-0.000446828
-0.00101116
-0.000515611
-0.000647665
-0.000513301
-0.000335651
-0.000434655
-0.000117692
-0.000293591
-1.30984e-05
-0.000126559
2.95042e-06
-9.22851e-05
0.000133497
-0.000333328
0.000418733
-0.000683882
0.000649776
-0.00110384
0.000800227
-0.00155551
0.000872143
-0.00200455
0.000873466
-0.00241889
0.000810195
-0.0027675
0.000684706
-0.00302012
0.000498038
-0.0031489
0.000254146
-0.00313192
-3.54094e-05
-0.00295795
-0.000348736
-0.00263221
-0.000650979
-0.00218043
-0.000898607
-0.0016501
-0.00104594
-0.00110644
-0.00105696
-0.000621766
-0.000919332
-0.000259008
-0.000656349
-5.3631e-05
-0.000331937
-5.06806e-05
-0.00013946
0.000272957
-0.000478422
0.000757695
-0.000951443
0.0011228
-0.00150406
0.00135284
-0.00208997
0.00145806
-0.00266852
0.00145202
-0.00320197
0.00134364
-0.00365345
0.00113619
-0.00398656
0.000831151
-0.004167
0.000434583
-0.00416648
-3.59236e-05
-0.00396787
-0.000547352
-0.00357253
-0.00104632
-0.00300609
-0.00146505
-0.00232205
-0.00172997
-0.00159966
-0.00177935
-0.000933072
-0.00158592
-0.000411495
-0.00117793
-9.55278e-05
-0.000647904
-0.000146208
-0.000181865
0.000454822
-0.000611071
0.0011869
-0.00119765
0.00170938
-0.00187314
0.00202833
-0.00258378
0.0021687
-0.00328466
0.0021529
-0.0039348
0.00199377
-0.00449376
0.00169515
-0.0049204
0.00125779
-0.00517387
0.000688054
-0.00521793
8.13296e-06
-0.00502496
-0.000740318
-0.00458701
-0.00148427
-0.00392297
-0.00212908
-0.0030871
-0.00256585
-0.0021712
-0.00269525
-0.00129582
-0.0024613
-0.000586708
-0.00188704
-0.000141319
-0.00109329
-0.000287528
-0.000219506
0.000674329
-0.00073009
0.00169749
-0.00142021
0.00239949
-0.00220897
0.0028171
-0.00303668
0.00299641
-0.00385608
0.0029723
-0.00462512
0.00276281
-0.00530176
0.0023718
-0.00584133
0.00179736
-0.00619651
0.00104323
-0.00631956
0.000131187
-0.00617064
-0.000889234
-0.00572447
-0.00193044
-0.00498543
-0.00286812
-0.00400101
-0.00355028
-0.00287186
-0.00382439
-0.00174884
-0.00358433
-0.000807153
-0.00282872
-0.000198479
-0.00170197
-0.000486007
-0.000252119
0.000926448
-0.00083384
0.00227921
-0.00161528
0.00318093
-0.00250523
0.00370705
-0.00343985
0.00393102
-0.0043715
0.00390396
-0.00525926
0.00365056
-0.00606163
0.00317417
-0.00673213
0.00246786
-0.00721754
0.00152864
-0.0074593
0.00037294
-0.00739966
-0.000948874
-0.00699139
-0.00233871
-0.00621491
-0.00364461
-0.00509969
-0.00466549
-0.00374582
-0.00517826
-0.00233326
-0.00499689
-0.00109986
-0.00406213
-0.00027652
-0.0025253
-0.000762528
-0.000278971
0.00120542
-0.000919478
0.00291971
-0.00177646
0.00403791
-0.0027504
0.00468099
-0.00377508
0.0049557
-0.00480448
0.00493336
-0.00580109
0.00464717
-0.00672666
0.00409975
-0.0075357
0.0032769
-0.00817173
0.00216467
-0.00856672
0.000767924
-0.00864512
-0.000870475
-0.0083335
-0.00265032
-0.00757922
-0.00439888
-0.00637889
-0.00586582
-0.00481432
-0.00674283
-0.0030829
-0.0067283
-0.00149267
-0.00565236
-0.00038639
-0.00363159
-0.00114892
-0.000299284
0.0015047
-0.000983828
0.00360426
-0.00189597
0.00495006
-0.00292935
0.00571437
-0.0040168
0.00604315
-0.00511571
0.00603226
-0.00619441
0.00572587
-0.0072211
0.00512644
-0.00815544
0.00421123
-0.00894262
0.00295185
-0.00951024
0.00133554
-0.00976904
-0.000611676
-0.00961999
-0.00279937
-0.00897122
-0.00504765
-0.00777035
-0.00706669
-0.0060547
-0.00845849
-0.00401125
-0.00877176
-0.00201017
-0.00765344
-0.000540564
-0.00510119
-0.00168948
-0.000313174
0.00181788
-0.00102554
0.00431662
-0.00196794
0.00589246
-0.00302761
0.00677404
-0.0041374
0.00715293
-0.00525967
0.00715453
-0.00637103
0.00683724
-0.00744974
0.00620515
-0.00846583
0.00522732
-0.00937334
0.00385936
-0.0101043
0.00206653
-0.0105652
-0.00015082
-0.0106389
-0.00272563
-0.010195
-0.00549156
-0.00911987
-0.00814184
-0.00737555
-0.0102028
-0.00509247
-0.0110548
-0.00266615
-0.0100798
-0.000752902
-0.00701444
-0.00244238
-0.00032313
0.00214101
-0.00104842
0.00504192
-0.00199331
0.00683735
-0.00303777
0.0078185
-0.00411549
0.00823065
-0.0051955
0.00823455
-0.0062651
0.00790683
-0.00731623
0.00725629
-0.00833497
0.00624606
-0.00929252
0.00481691
-0.0101369
0.00291094
-0.0107849
0.000497136
-0.0111159
-0.00239457
-0.0109726
-0.00563489
-0.0101787
-0.00893574
-0.0085952
-0.0117863
-0.00623718
-0.0134129
-0.00345014
-0.0128668
-0.00103718
-0.0094274
-0.00347956
-0.000336186
0.00247719
-0.00106586
0.00577159
-0.0019858
0.0077573
-0.00296694
0.00879964
-0.00394558
0.00920929
-0.00490001
0.00918898
-0.005831
0.00883782
-0.00674759
0.00817287
-0.00765679
0.00715526
-0.00855468
0.0057148
-0.0094169
0.00377316
-0.0101871
0.00126737
-0.0107625
-0.00181921
-0.0109818
-0.00541554
-0.0106227
-0.00929493
-0.00943709
-0.0129719
-0.0072701
-0.0155798
-0.00430682
-0.0158301
-0.0014026
-0.0123316
-0.00488216
-0.000367162
0.00284435
-0.00110604
0.00651047
-0.00197769
0.00862894
-0.00284269
0.00966465
-0.00364494
0.0100115
-0.00437721
0.00992124
-0.0050576
0.00951821
-0.0057152
0.00883047
-0.00638116
0.00782122
-0.00708118
0.00641482
-0.00782679
0.00451878
-0.00860263
0.00204321
-0.00934635
-0.00107549
-0.00992504
-0.00483686
-0.0101063
-0.00911367
-0.00955645
-0.0135217
-0.00792371
-0.0172126
-0.00511243
-0.0186414
-0.00184406
-0.0156
-0.00672622
-0.000443601
0.00328795
-0.00121748
0.00728435
-0.00202237
0.00943382
-0.0027121
0.0103544
-0.00325029
0.0105497
-0.00365418
0.0103251
-0.00396521
0.00982923
-0.00423516
0.00910043
-0.00452004
0.00810609
-0.0048754
0.00677019
-0.00535058
0.00499395
-0.00597791
0.00267054
-0.00675266
-0.000300738
-0.00760292
-0.0039866
-0.00833816
-0.00837842
-0.00859797
-0.0132619
-0.00785927
-0.0179513
-0.00565775
-0.0208429
-0.00232569
-0.0189321
-0.00905191
-0.000613809
0.00390176
-0.00147176
0.00814231
-0.0021855
0.0101476
-0.00262105
0.0107899
-0.0027874
0.0107161
-0.00274347
0.0102812
-0.0025626
0.00964836
-0.00232152
0.00885934
-0.00209922
0.0078838
-0.00197657
0.00664753
-0.00203535
0.00505273
-0.00235218
0.00298737
-0.00298599
0.000333072
-0.00394533
-0.00302726
-0.00513596
-0.00718779
-0.00625819
-0.0121397
-0.00670864
-0.0175008
-0.00564653
-0.021905
-0.00275748
-0.0218211
-0.0118094
-0.000954303
0.00485607
-0.00194803
0.00913604
-0.00249645
0.010696
-0.00253643
0.0108299
-0.00217127
0.0103509
-0.00152774
0.00963768
-0.000720944
0.00884157
0.000147058
0.00799134
0.000980756
0.0070501
0.00168209
0.0059462
0.0021481
0.00458672
0.0022697
0.00286576
0.00193612
0.000666656
0.00105444
-0.00214558
-0.000407294
-0.00572606
-0.00230236
-0.0102446
-0.00410151
-0.0157017
-0.00469479
-0.0213117
-0.00296401
-0.0235519
-0.0147734
-0.00156048
0.00641655
-0.00262829
0.0102038
-0.00274819
0.0108159
-0.00208478
0.0101665
-0.000916411
0.00918255
0.000536165
0.0081851
0.00211624
0.00726149
0.00370731
0.00640027
0.00520981
0.0055476
0.00652538
0.00463063
0.00754595
0.00356616
0.00814797
0.00226374
0.00818865
0.00062598
0.0075137
-0.00147063
0.00597183
-0.00418419
0.00350665
-0.00777944
0.000409961
-0.012605
-0.00227421
-0.0186275
-0.00259984
-0.0232263
-0.0173732
-0.0023632
0.00877975
-0.00292721
0.0107679
-0.0018332
0.00972185
0.000153873
0.00817943
0.00252174
0.00681468
0.00499325
0.00571359
0.00741949
0.00483525
0.00971164
0.00410813
0.0118002
0.00345909
0.0136117
0.00281907
0.0150558
0.0021221
0.016016
0.00130352
0.0163435
0.000298429
0.0158595
-0.000986647
0.0143375
-0.00266215
0.0115351
-0.00497708
0.00734377
-0.00841363
0.00241156
-0.0136953
-0.000996038
-0.0198187
-0.0183693
-0.00198099
0.0107607
0.000370441
0.00841644
0.00427159
0.0058207
0.00817957
0.00427145
0.0118041
0.00319012
0.0150689
0.00244885
0.0179713
0.00193285
0.0205278
0.00155159
0.0227436
0.00124329
0.0245991
0.000963537
0.0260444
0.000676877
0.026993
0.000354846
0.027312
-2.05105e-05
0.0268516
-0.000526217
0.0253642
-0.00117479
0.0225097
-0.00212262
0.0178178
-0.00372166
0.0108592
-0.00673679
0.00298378
-0.0119432
-0.0153855
0.0107607
0.0191772
0.0249979
0.0292693
0.0324594
0.0349083
0.0368411
0.0383927
0.039636
0.0405996
0.0412764
0.0416313
0.0416108
0.0410846
0.0399098
0.0377871
0.0340655
0.0273287
0.0153855
)
;

boundaryField
{
    movingWall
    {
        type            calculated;
        value           uniform 0;
    }
    fixedWalls
    {
        type            calculated;
        value           uniform 0;
    }
    frontAndBack
    {
        type            empty;
    }
}


// ************************************************************************* //
