/*--------------------------------*- C++ -*----------------------------------*\
  =========                 |
  \\      /  F ield         | OpenFOAM: The Open Source CFD Toolbox
   \\    /   O peration     | Website:  https://openfoam.org
    \\  /    A nd           | Version:  13
     \\/     M anipulation  |
\*---------------------------------------------------------------------------*/
FoamFile
{
    format      ascii;
    class       surfaceScalarField;
    location    "5";
    object      phi_0;
}
// * * * * * * * * * * * * * * * * * * * * * * * * * * * * * * * * * * * * * //

dimensions      [0 3 -1 0 0 0 0];

internalField   nonuniform List<scalar> 
760
(
3.40749e-07
-3.40626e-07
-3.89513e-05
3.92921e-05
-0.000118296
7.93446e-05
-0.000224175
0.000105879
-0.000343402
0.000119227
-0.000464958
0.000121556
-0.000579359
0.000114401
-0.000677574
9.82155e-05
-0.000750409
7.28344e-05
-0.000788779
3.83707e-05
-0.000784926
-3.8534e-06
-0.000734465
-5.04614e-05
-0.00063866
-9.58047e-05
-0.000506257
-0.000132403
-0.000353871
-0.000152386
-0.000204172
-0.000149699
-8.15953e-05
-0.000122577
-5.97403e-06
-7.56212e-05
1.60164e-05
-2.19904e-05
1.60163e-05
-4.15486e-05
4.12079e-05
-0.000179851
0.000177594
-0.000399532
0.000299025
-0.000673652
0.000379999
-0.000974565
0.00042014
-0.00127709
0.000424081
-0.0015582
0.000395514
-0.00179579
0.000335804
-0.00196816
0.000245204
-0.00205507
0.000125281
-0.00204056
-1.83652e-05
-0.00191647
-0.000174549
-0.0016874
-0.000324882
-0.00137341
-0.000446388
-0.00101064
-0.000515159
-0.000647423
-0.000512914
-0.000335602
-0.000434398
-0.000117731
-0.000293492
-1.31338e-05
-0.000126588
2.88239e-06
-9.22207e-05
0.000133429
-0.000333081
0.000418454
-0.000683358
0.000649302
-0.00110296
0.000799606
-0.00155426
0.000871431
-0.0020029
0.000872722
-0.00241687
0.000809484
-0.00276516
0.000684101
-0.00301758
0.000497618
-0.00314628
0.000253982
-0.00312937
-3.52701e-05
-0.00295564
-0.000348284
-0.00263026
-0.000650259
-0.00217893
-0.000897714
-0.00164909
-0.00104501
-0.00110586
-0.00105614
-0.000621519
-0.000918744
-0.000258954
-0.000656056
-5.36403e-05
-0.000331902
-5.07578e-05
-0.000139344
0.000272773
-0.00047802
0.00075713
-0.000950636
0.00112192
-0.00150277
0.00135174
-0.00208817
0.00145683
-0.0026662
0.00145075
-0.00319916
0.00134245
-0.00365024
0.00113519
-0.00398309
0.000830465
-0.00416343
0.000434318
-0.004163
-3.56969e-05
-0.00396466
-0.000546621
-0.00356977
-0.00104515
-0.0030039
-0.00146359
-0.00232048
-0.00172842
-0.00159868
-0.00177794
-0.000932571
-0.00158485
-0.000411318
-0.00117731
-9.55038e-05
-0.000647716
-0.000146262
-0.000181701
0.000454474
-0.000610527
0.00118596
-0.00119659
0.00170798
-0.00187148
0.00202663
-0.00258149
0.00216684
-0.00328175
0.00215101
-0.00393131
0.00199201
-0.0044898
0.00169368
-0.00491612
0.00125678
-0.00516946
0.00068766
-0.00521359
8.43155e-06
-0.00502092
-0.000739288
-0.00458346
-0.00148261
-0.00392008
-0.00212698
-0.00308493
-0.00256357
-0.00216977
-0.0026931
-0.00129503
-0.00245959
-0.000586388
-0.00188595
-0.000141256
-0.00109285
-0.000287517
-0.000219306
0.00067378
-0.000729439
0.00169609
-0.00141896
0.0023975
-0.00220704
0.00281472
-0.00303403
0.00299383
-0.00385273
0.00296971
-0.00462113
0.0027604
-0.00529725
0.0023698
-0.00583645
0.00179598
-0.00619145
0.00104266
-0.00631457
0.000131546
-0.00616593
-0.000887925
-0.00572026
-0.00192828
-0.0049819
-0.00286534
-0.00399828
-0.00354719
-0.00286999
-0.00382139
-0.00174774
-0.00358183
-0.000806677
-0.00282702
-0.000198372
-0.00170115
-0.00048589
-0.0002519
0.000925681
-0.000833136
0.00227732
-0.00161394
0.0031783
-0.00250317
0.00370395
-0.00343703
0.0039277
-0.00436796
0.00390064
-0.00525505
0.0036475
-0.00605688
0.00317163
-0.00672699
0.00246609
-0.0072122
0.00152787
-0.00745397
0.000373314
-0.00739457
-0.00094733
-0.00698675
-0.0023361
-0.00621092
-0.00364117
-0.00509651
-0.0046616
-0.00374354
-0.00517436
-0.00233188
-0.0049935
-0.00109922
-0.00405968
-0.000276364
-0.00252401
-0.000762254
-0.000278758
0.00120444
-0.000918793
0.00291736
-0.00177515
0.00403466
-0.0027484
0.0046772
-0.00377236
0.00495165
-0.00480106
0.00492934
-0.00579704
0.00464348
-0.0067221
0.00409668
-0.00753076
0.00327475
-0.00816658
0.0021637
-0.00856155
0.000768277
-0.00864011
-0.000868765
-0.00832885
-0.00264736
-0.00757511
-0.00439491
-0.00637549
-0.00586121
-0.00481177
-0.00673808
-0.00308127
-0.00672399
-0.00149188
-0.00564907
-0.000386183
-0.00362971
-0.00114844
-0.000299104
0.00150354
-0.000983245
0.0036015
-0.00189485
0.00494627
-0.00292764
0.00570998
-0.00401447
0.00603849
-0.00511278
0.00602766
-0.00619095
0.00572165
-0.00721722
0.00512295
-0.00815125
0.00420879
-0.00893826
0.00295071
-0.00950584
0.00133586
-0.00976473
-0.000609878
-0.0096159
-0.0027962
-0.00896747
-0.00504333
-0.00776711
-0.00706158
-0.00605213
-0.00845306
-0.00400949
-0.00876663
-0.00200926
-0.0076493
-0.000540308
-0.00509866
-0.00168874
-0.000313056
0.0018166
-0.00102514
0.00431359
-0.00196717
0.0058883
-0.00302641
0.00676921
-0.00413575
0.00714783
-0.00525761
0.00714951
-0.00636862
0.00683266
-0.00744706
0.00620139
-0.00846298
0.00522471
-0.0093704
0.00385813
-0.0101014
0.00206683
-0.0105623
-0.000148999
-0.0106361
-0.0027224
-0.0101922
-0.00548714
-0.0091173
-0.00813653
-0.00737333
-0.010197
-0.00509081
-0.0110491
-0.0026652
-0.0100749
-0.000752607
-0.00701125
-0.00244135
-0.000323099
0.0021397
-0.00104829
0.00503878
-0.00199302
0.00683302
-0.00303728
0.00781348
-0.0041148
0.00822535
-0.00519465
0.00822935
-0.00626412
0.00790214
-0.00731521
0.00725247
-0.00833394
0.00624344
-0.00929153
0.00481572
-0.010136
0.00291126
-0.0107839
0.000498945
-0.0111149
-0.00239143
-0.0109714
-0.00563062
-0.0101773
-0.00893059
-0.00859377
-0.0117806
-0.00623591
-0.013407
-0.00344928
-0.0128615
-0.00103687
-0.00942366
-0.00347823
-0.000336259
0.00247596
-0.00106604
0.00576857
-0.00198609
0.00775307
-0.00296732
0.0087947
-0.00394604
0.00920407
-0.00490058
0.0091839
-0.00583171
0.00883327
-0.00674847
0.00816923
-0.00765786
0.00715283
-0.00855591
0.00571377
-0.00941822
0.00377358
-0.0101884
0.00126915
-0.0107636
-0.00181626
-0.0109826
-0.00541163
-0.0106229
-0.00929026
-0.00943686
-0.0129667
-0.00726953
-0.0155743
-0.00430625
-0.0158248
-0.00140233
-0.0123276
-0.00488055
-0.000367344
0.0028433
-0.00110656
0.00650779
-0.00197858
0.0086251
-0.00284397
0.00966009
-0.0036466
0.0100067
-0.00437925
0.00991654
-0.00506003
0.00951405
-0.005718
0.0088272
-0.00638428
0.00781911
-0.00708454
0.00641403
-0.00783028
0.00451932
-0.00860607
0.00204494
-0.00934954
-0.00107278
-0.00992775
-0.00483342
-0.0101083
-0.00910969
-0.00955764
-0.0135173
-0.00792411
-0.0172079
-0.00511232
-0.0186366
-0.00184389
-0.015596
-0.00672445
-0.000443879
0.00328718
-0.0012183
0.00728221
-0.00202382
0.00943061
-0.0027142
0.0103505
-0.00325304
0.0105455
-0.00365755
0.0103211
-0.00396915
0.00982564
-0.00423959
0.00909764
-0.00452485
0.00810437
-0.00488047
0.00676965
-0.00535574
0.00499458
-0.00598297
0.00267218
-0.00675742
-0.000298337
-0.00760715
-0.00398369
-0.00834163
-0.00837522
-0.00860046
-0.0132585
-0.00786068
-0.0179476
-0.00565824
-0.0208391
-0.00232569
-0.0189286
-0.00905014
-0.000614148
0.00390133
-0.00147278
0.00814084
-0.00218734
0.0101452
-0.00262375
0.0107869
-0.00279094
0.0107127
-0.00274779
0.0102779
-0.0025676
0.00964545
-0.00232705
0.00885709
-0.00210512
0.00788245
-0.00198265
0.00664717
-0.00204142
0.00505335
-0.00235806
0.00298882
-0.00299152
0.00033512
-0.00395031
-0.00302489
-0.00514022
-0.00718531
-0.0062615
-0.0121372
-0.00671082
-0.0174983
-0.00564757
-0.0219023
-0.00275769
-0.0218184
-0.0118078
-0.00095464
0.00485597
-0.00194908
0.00913528
-0.00249838
0.0106945
-0.00253932
0.0108278
-0.00217509
0.0103485
-0.00153241
0.00963523
-0.000726332
0.00883936
0.000141135
0.00798963
0.000974533
0.00704905
0.00167578
0.00594592
0.00214191
0.00458722
0.00226382
0.00286692
0.00193067
0.000668269
0.00104953
-0.00214375
-0.000411541
-0.00572424
-0.00230581
-0.010243
-0.004104
-0.0157001
-0.00469616
-0.0213101
-0.00296441
-0.0235502
-0.0147722
-0.00156073
0.0064167
-0.00262912
0.0102037
-0.0027498
0.0108151
-0.00208728
0.0101653
-0.000919812
0.00918104
0.000531931
0.00818349
0.00211131
0.00725998
0.00370187
0.00639907
0.00520409
0.00554684
0.00651962
0.0046304
0.00754036
0.00356648
0.00814275
0.00226453
0.00818391
0.000627103
0.00750952
-0.00146936
0.00596825
-0.00418297
0.00350372
-0.00777842
0.000407812
-0.0126042
-0.00227555
-0.0186268
-0.00260032
-0.0232254
-0.0173726
-0.00236326
0.00877996
-0.00292757
0.010768
-0.00183408
0.00972165
0.000152317
0.00817891
0.00251943
0.00681392
0.0049902
0.00571272
0.00741579
0.0048344
0.00970743
0.00410743
0.0117956
0.00345863
0.0136071
0.00281892
0.0150513
0.00212227
0.0160119
0.00130398
0.0163399
0.000299077
0.0158564
-0.000985923
0.014335
-0.00266148
0.0115331
-0.00497656
0.0073422
-0.00841332
0.00241054
-0.0136951
-0.000996481
-0.0198184
-0.018369
-0.00198089
0.0107608
0.000370548
0.00841655
0.0042715
0.0058207
0.0081791
0.00427132
0.0118031
0.00318988
0.0150673
0.00244856
0.0179691
0.00193256
0.0205252
0.00155135
0.0227407
0.00124314
0.0245961
0.0009635
0.0260414
0.000676953
0.0269904
0.000355013
0.0273097
-2.02192e-05
0.0268498
-0.000525974
0.0253628
-0.00117458
0.0225088
-0.00212248
0.0178171
-0.00372162
0.0108588
-0.0067368
0.00298357
-0.0119432
-0.0153855
0.0107608
0.0191774
0.0249981
0.0292694
0.0324593
0.0349078
0.0368404
0.0383918
0.0396349
0.0405984
0.0412753
0.0416304
0.0416101
0.0410842
0.0399096
0.0377871
0.0340655
0.0273287
0.0153855
)
;

boundaryField
{
    movingWall
    {
        type            calculated;
        value           uniform 0;
    }
    fixedWalls
    {
        type            calculated;
        value           uniform 0;
    }
    frontAndBack
    {
        type            empty;
    }
}


// ************************************************************************* //
