/*--------------------------------*- C++ -*----------------------------------*\
  =========                 |
  \\      /  F ield         | OpenFOAM: The Open Source CFD Toolbox
   \\    /   O peration     | Website:  https://openfoam.org
    \\  /    A nd           | Version:  13
     \\/     M anipulation  |
\*---------------------------------------------------------------------------*/
FoamFile
{
    format      ascii;
    class       volVectorField;
    location    "5";
    object      U;
}
// * * * * * * * * * * * * * * * * * * * * * * * * * * * * * * * * * * * * * //

dimensions      [0 1 -1 0 0 0 0];

internalField   nonuniform List<vector> 
400
(
(0.000159925 -0.000159108 0)
(-0.000170019 1.05198e-05 0)
(-0.00142363 0.000193121 0)
(-0.00333654 0.000305351 0)
(-0.00564476 0.000360352 0)
(-0.00810228 0.000377059 0)
(-0.0105072 0.000365414 0)
(-0.012678 0.000326888 0)
(-0.0144327 0.000257802 0)
(-0.0155846 0.000154118 0)
(-0.0159578 1.67006e-05 0)
(-0.0154208 -0.000146095 0)
(-0.0139331 -0.000311698 0)
(-0.0115902 -0.000448649 0)
(-0.00864921 -0.00052122 0)
(-0.00551716 -0.000500101 0)
(-0.00268959 -0.000373795 0)
(-0.000630974 -0.000159758 0)
(0.000344328 7.96048e-05 0)
(0.000252902 0.00024016 0)
(-1.57748e-05 0.000167446 0)
(-0.00176435 0.00167262 0)
(-0.00546065 0.00313754 0)
(-0.0105433 0.00412471 0)
(-0.0164282 0.00462523 0)
(-0.0225852 0.00470601 0)
(-0.0285369 0.00441911 0)
(-0.033836 0.00378151 0)
(-0.0380425 0.00279071 0)
(-0.0407272 0.00145646 0)
(-0.0415116 -0.000164434 0)
(-0.0401336 -0.00194251 0)
(-0.0365387 -0.00366302 0)
(-0.0309656 -0.00504811 0)
(-0.0239839 -0.00580788 0)
(-0.0164686 -0.00572157 0)
(-0.00947444 -0.00472853 0)
(-0.00401034 -0.00300382 0)
(-0.000756709 -0.00102045 0)
(0.000165906 0.00037294 0)
(-0.000238966 0.00152702 0)
(-0.00362813 0.00547703 0)
(-0.00971955 0.00886612 0)
(-0.0176293 0.0111189 0)
(-0.0265251 0.0122267 0)
(-0.0356967 0.0123058 0)
(-0.0444867 0.0114507 0)
(-0.0522685 0.00969848 0)
(-0.0584259 0.00706162 0)
(-0.0623647 0.00359306 0)
(-0.0635665 -0.000542592 0)
(-0.061674 -0.00501653 0)
(-0.0566022 -0.00931832 0)
(-0.0486472 -0.0128025 0)
(-0.0385462 -0.0148016 0)
(-0.0274597 -0.0148042 0)
(-0.0168287 -0.0126602 0)
(-0.00808997 -0.00875026 0)
(-0.00231851 -0.00406789 0)
(3.26173e-05 -0.000277403 0)
(-0.000431416 0.00386151 0)
(-0.00538681 0.011313 0)
(-0.0137563 0.0171527 0)
(-0.0242778 0.0209099 0)
(-0.0358795 0.0226753 0)
(-0.0477192 0.0226493 0)
(-0.059025 0.0209765 0)
(-0.0690573 0.0177144 0)
(-0.0770803 0.0128919 0)
(-0.0823727 0.00661371 0)
(-0.0842863 -0.000828004 0)
(-0.0823363 -0.00887347 0)
(-0.0763326 -0.0166558 0)
(-0.0665217 -0.0230771 0)
(-0.0536882 -0.0269787 0)
(-0.0391872 -0.0274309 0)
(-0.0248256 -0.024088 0)
(-0.0125423 -0.0174968 0)
(-0.00397189 -0.00921747 0)
(-7.08641e-05 -0.00175929 0)
(-0.000594767 0.00709569 0)
(-0.00697998 0.0190349 0)
(-0.0174626 0.0277952 0)
(-0.0304051 0.0332375 0)
(-0.044511 0.0356807 0)
(-0.0588397 0.0354671 0)
(-0.072553 0.0328088 0)
(-0.0848479 0.0277789 0)
(-0.0949087 0.0204077 0)
(-0.101903 0.0108308 0)
(-0.105038 -0.000553153 0)
(-0.103639 -0.0129457 0)
(-0.0973074 -0.0251203 0)
(-0.0861123 -0.0354547 0)
(-0.0707555 -0.0421642 0)
(-0.0527061 -0.0437064 0)
(-0.0341611 -0.0393322 0)
(-0.0177181 -0.0296184 0)
(-0.00582162 -0.0167022 0)
(-0.000153649 -0.00408826 0)
(-0.000735664 0.0111312 0)
(-0.0083985 0.0284778 0)
(-0.0207985 0.040615 0)
(-0.0359585 0.0479307 0)
(-0.0523873 0.0511039 0)
(-0.0690797 0.0506892 0)
(-0.0851735 0.0469891 0)
(-0.0998469 0.0400836 0)
(-0.112239 0.0299724 0)
(-0.121422 0.0167743 0)
(-0.126423 0.000939078 0)
(-0.126329 -0.0165595 0)
(-0.120434 -0.0341396 0)
(-0.108465 -0.0496047 0)
(-0.0908744 -0.0603846 0)
(-0.0691166 -0.0640464 0)
(-0.0457625 -0.0590931 0)
(-0.0242386 -0.0458595 0)
(-0.00814671 -0.0270331 0)
(-0.000247989 -0.00740884 0)
(-0.000855648 0.0158715 0)
(-0.0096286 0.0394538 0)
(-0.0237116 0.0553965 0)
(-0.0408367 0.0647857 0)
(-0.0593567 0.0687874 0)
(-0.0782381 0.0682426 0)
(-0.096637 0.0635713 0)
(-0.113758 0.0548484 0)
(-0.128735 0.0419981 0)
(-0.140572 0.0250497 0)
(-0.148131 0.00441218 0)
(-0.150213 -0.0188749 0)
(-0.145705 -0.0429292 0)
(-0.133847 -0.0649727 0)
(-0.114631 -0.0814984 0)
(-0.0892619 -0.0888379 0)
(-0.0605434 -0.0842347 0)
(-0.0328274 -0.0672837 0)
(-0.0113053 -0.0410574 0)
(-0.000394883 -0.012036 0)
(-0.000952683 0.0212101 0)
(-0.0106415 0.0517403 0)
(-0.0261166 0.0718662 0)
(-0.0448675 0.0835216 0)
(-0.0651295 0.0884801 0)
(-0.0858757 0.0879462 0)
(-0.106324 0.0824891 0)
(-0.125754 0.0721687 0)
(-0.143355 0.0567841 0)
(-0.158115 0.0361874 0)
(-0.168779 0.0106232 0)
(-0.17388 -0.0189313 0)
(-0.171861 -0.0504436 0)
(-0.161353 -0.0806239 0)
(-0.141644 -0.104945 0)
(-0.113344 -0.118157 0)
(-0.0791372 -0.115567 0)
(-0.0441866 -0.0951919 0)
(-0.0157075 -0.0599836 0)
(-0.000646042 -0.018492 0)
(-0.00102463 0.0270228 0)
(-0.0114072 0.0650655 0)
(-0.0279165 0.0896654 0)
(-0.0478367 0.10373 0)
(-0.0693142 0.109757 0)
(-0.0913597 0.109396 0)
(-0.113293 0.103408 0)
(-0.134528 0.0918383 0)
(-0.154378 0.074322 0)
(-0.17191 0.0504505 0)
(-0.185856 0.0201742 0)
(-0.194579 -0.0157709 0)
(-0.19614 -0.0554107 0)
(-0.188521 -0.0951395 0)
(-0.170095 -0.129485 0)
(-0.140446 -0.151383 0)
(-0.101535 -0.153461 0)
(-0.0588362 -0.130889 0)
(-0.0218056 -0.0853377 0)
(-0.00107544 -0.027535 0)
(-0.00107549 0.0331734 0)
(-0.0119261 0.079112 0)
(-0.0290568 0.108338 0)
(-0.0495619 0.124837 0)
(-0.0715127 0.13195 0)
(-0.0939821 0.131865 0)
(-0.116431 0.125589 0)
(-0.138465 0.113176 0)
(-0.159608 0.094084 0)
(-0.179131 0.0675878 0)
(-0.195915 0.0332305 0)
(-0.208341 -0.00867928 0)
(-0.214275 -0.0565025 0)
(-0.211156 -0.106652 0)
(-0.196357 -0.153024 0)
(-0.168028 -0.186792 0)
(-0.126602 -0.197298 0)
(-0.0768381 -0.175244 0)
(-0.0300623 -0.118816 0)
(-0.00179786 -0.0401924 0)
(-0.00112545 0.0395446 0)
(-0.0122794 0.0935517 0)
(-0.0296095 0.127347 0)
(-0.0500056 0.146091 0)
(-0.0714642 0.154111 0)
(-0.0931475 0.154236 0)
(-0.114698 0.147797 0)
(-0.135968 0.134904 0)
(-0.156785 0.114863 0)
(-0.176759 0.0866238 0)
(-0.195115 0.0492607 0)
(-0.210525 0.0024978 0)
(-0.220961 -0.0526563 0)
(-0.223607 -0.113089 0)
(-0.214987 -0.172656 0)
(-0.191605 -0.22127 0)
(-0.15155 -0.24485 0)
(-0.0973543 -0.227995 0)
(-0.0408448 -0.161951 0)
(-0.00299428 -0.057784 0)
(-0.00122718 0.0461037 0)
(-0.0126995 0.108122 0)
(-0.0298777 0.146121 0)
(-0.0494079 0.166587 0)
(-0.0692113 0.175016 0)
(-0.0885922 0.17501 0)
(-0.107428 0.168304 0)
(-0.125877 0.155137 0)
(-0.144147 0.134728 0)
(-0.162308 0.105758 0)
(-0.180118 0.06684 0)
(-0.196819 0.0170366 0)
(-0.210871 -0.0435108 0)
(-0.21967 -0.112673 0)
(-0.219336 -0.185075 0)
(-0.204905 -0.250393 0)
(-0.171618 -0.291814 0)
(-0.118096 -0.28687 0)
(-0.054173 -0.215479 0)
(-0.00493698 -0.0818912 0)
(-0.001494 0.0530217 0)
(-0.013667 0.122751 0)
(-0.0305097 0.164137 0)
(-0.0484013 0.18531 0)
(-0.065222 0.193217 0)
(-0.0805402 0.192368 0)
(-0.0945592 0.184986 0)
(-0.10781 0.171511 0)
(-0.120933 0.151165 0)
(-0.134531 0.122457 0)
(-0.149017 0.0836406 0)
(-0.164414 0.0331505 0)
(-0.180028 -0.0298419 0)
(-0.194022 -0.104594 0)
(-0.202836 -0.187368 0)
(-0.200736 -0.269063 0)
(-0.180281 -0.331864 0)
(-0.134887 -0.346794 0)
(-0.069262 -0.278364 0)
(-0.00798927 -0.114192 0)
(-0.00214979 0.0608696 0)
(-0.0160429 0.13771 0)
(-0.0325863 0.180982 0)
(-0.048025 0.201161 0)
(-0.0603397 0.207076 0)
(-0.0696193 0.204276 0)
(-0.076553 0.195506 0)
(-0.0821228 0.18144 0)
(-0.0874324 0.161376 0)
(-0.0936171 0.133774 0)
(-0.101754 0.0966775 0)
(-0.112714 0.0480578 0)
(-0.126866 -0.0137876 0)
(-0.14361 -0.0896453 0)
(-0.160558 -0.178051 0)
(-0.172402 -0.272718 0)
(-0.170128 -0.357506 0)
(-0.141667 -0.399697 0)
(-0.0838832 -0.34661 0)
(-0.0125232 -0.156052 0)
(-0.00362917 0.0709669 0)
(-0.0212342 0.153793 0)
(-0.0375715 0.196351 0)
(-0.0494243 0.212892 0)
(-0.0552619 0.214743 0)
(-0.0561713 0.20854 0)
(-0.0535764 0.197467 0)
(-0.0490066 0.182376 0)
(-0.0440236 0.162655 0)
(-0.040224 0.136792 0)
(-0.0392393 0.10279 0)
(-0.0426819 0.0583945 0)
(-0.0519817 0.00132494 0)
(-0.0679699 -0.0704607 0)
(-0.0901177 -0.157915 0)
(-0.114973 -0.258763 0)
(-0.134047 -0.36165 0)
(-0.130989 -0.435258 0)
(-0.0937126 -0.412191 0)
(-0.0186426 -0.207706 0)
(-0.00668103 0.085807 0)
(-0.0312331 0.172079 0)
(-0.0466766 0.209479 0)
(-0.0525575 0.218529 0)
(-0.0487282 0.213714 0)
(-0.0380732 0.202546 0)
(-0.0230715 0.188339 0)
(-0.00587137 0.171903 0)
(0.0115707 0.152618 0)
(0.0273474 0.129037 0)
(0.0394842 0.0992341 0)
(0.0458644 0.0609803 0)
(0.0442586 0.0118274 0)
(0.0325486 -0.0509267 0)
(0.00916209 -0.130072 0)
(-0.0253674 -0.227533 0)
(-0.0658495 -0.339331 0)
(-0.094424 -0.442293 0)
(-0.0917968 -0.462357 0)
(-0.0254964 -0.26678 0)
(-0.0127031 0.110629 0)
(-0.0477483 0.193997 0)
(-0.0576949 0.218516 0)
(-0.0514074 0.214627 0)
(-0.0318734 0.200239 0)
(-0.00479541 0.182901 0)
(0.0261486 0.165307 0)
(0.0583362 0.147776 0)
(0.089697 0.129453 0)
(0.118316 0.108905 0)
(0.142175 0.0843523 0)
(0.159004 0.0537927 0)
(0.166135 0.0150036 0)
(0.160632 -0.0347076 0)
(0.139236 -0.0987844 0)
(0.0994715 -0.18219 0)
(0.0407803 -0.289072 0)
(-0.0215735 -0.410368 0)
(-0.0678123 -0.48052 0)
(-0.0299813 -0.326907 0)
(-0.0215257 0.149383 0)
(-0.0662415 0.212884 0)
(-0.0527979 0.21258 0)
(-0.0196409 0.190606 0)
(0.0256879 0.16598 0)
(0.0750142 0.143788 0)
(0.124505 0.124729 0)
(0.172019 0.108023 0)
(0.216113 0.0923968 0)
(0.255446 0.0764071 0)
(0.288429 0.0585339 0)
(0.313066 0.0371899 0)
(0.326677 0.0106836 0)
(0.326147 -0.0231589 0)
(0.307278 -0.0672143 0)
(0.265656 -0.127218 0)
(0.195123 -0.213061 0)
(0.102832 -0.333487 0)
(-0.00596351 -0.449776 0)
(-0.0237028 -0.377175 0)
(-0.0272051 0.230252 0)
(-0.0359488 0.223853 0)
(0.046412 0.176584 0)
(0.125186 0.13721 0)
(0.201277 0.107168 0)
(0.270371 0.0852499 0)
(0.331997 0.0691518 0)
(0.386504 0.0567559 0)
(0.434216 0.0464237 0)
(0.475039 0.0368528 0)
(0.508292 0.0269294 0)
(0.532702 0.0156514 0)
(0.545949 0.00199488 0)
(0.545525 -0.0149573 0)
(0.527148 -0.0372866 0)
(0.486195 -0.0692215 0)
(0.412244 -0.120377 0)
(0.302706 -0.213242 0)
(0.124504 -0.348196 0)
(0.0233193 -0.37856 0)
(0.214705 0.136051 0)
(0.286013 0.0987826 0)
(0.445708 0.0570829 0)
(0.548494 0.0365354 0)
(0.621153 0.0239589 0)
(0.676311 0.0160403 0)
(0.719435 0.0110772 0)
(0.753827 0.00784258 0)
(0.781513 0.00554669 0)
(0.803485 0.00369356 0)
(0.819932 0.00193915 0)
(0.830421 5.10172e-05 0)
(0.833989 -0.00226639 0)
(0.829138 -0.00480924 0)
(0.812552 -0.00831963 0)
(0.781704 -0.013437 0)
(0.724206 -0.0232269 0)
(0.635405 -0.0407045 0)
(0.431287 -0.0914 0)
(0.27086 -0.153571 0)
)
;

boundaryField
{
    movingWall
    {
        type            fixedValue;
        value           uniform (1 0 0);
    }
    fixedWalls
    {
        type            fixedValue;
        value           uniform (0 0 0);
    }
    frontAndBack
    {
        type            empty;
    }
}


// ************************************************************************* //
