/*--------------------------------*- C++ -*----------------------------------*\
  =========                 |
  \\      /  F ield         | OpenFOAM: The Open Source CFD Toolbox
   \\    /   O peration     | Website:  https://openfoam.org
    \\  /    A nd           | Version:  13
     \\/     M anipulation  |
\*---------------------------------------------------------------------------*/
FoamFile
{
    format      ascii;
    class       volVectorField;
    location    "5";
    object      U_0;
}
// * * * * * * * * * * * * * * * * * * * * * * * * * * * * * * * * * * * * * //

dimensions      [0 1 -1 0 0 0 0];

internalField   nonuniform List<vector> 
400
(
(0.000159724 -0.000158904 0)
(-0.000170301 1.06321e-05 0)
(-0.00142334 0.000193099 0)
(-0.00333508 0.000305229 0)
(-0.00564173 0.000360163 0)
(-0.00809742 0.000376823 0)
(-0.0105004 0.000365149 0)
(-0.0126694 0.000326622 0)
(-0.0144225 0.000257576 0)
(-0.0155735 0.00015398 0)
(-0.0159465 1.66944e-05 0)
(-0.0154102 -0.00014594 0)
(-0.0139242 -0.000311392 0)
(-0.0115837 -0.000448246 0)
(-0.00864546 -0.000520814 0)
(-0.0055159 -0.0004998 0)
(-0.00269009 -0.000373694 0)
(-0.000632291 -0.000159891 0)
(0.000343247 7.93521e-05 0)
(0.000252626 0.000239876 0)
(-1.58646e-05 0.000167727 0)
(-0.00176354 0.00167198 0)
(-0.00545742 0.00313573 0)
(-0.0105363 0.00412195 0)
(-0.0164167 0.00462184 0)
(-0.0225687 0.00470229 0)
(-0.0285152 0.0044154 0)
(-0.0338096 0.00377822 0)
(-0.0380125 0.0027883 0)
(-0.040695 0.00145538 0)
(-0.0414793 -0.000163841 0)
(-0.0401034 -0.00194014 0)
(-0.0365127 -0.00365909 0)
(-0.0309454 -0.00504322 0)
(-0.0239703 -0.00580289 0)
(-0.0164613 -0.00571742 0)
(-0.00947201 -0.00472599 0)
(-0.00401075 -0.00300319 0)
(-0.000757829 -0.00102124 0)
(0.000165549 0.000371911 0)
(-0.000238849 0.00152652 0)
(-0.00362556 0.00547379 0)
(-0.00971226 0.00886005 0)
(-0.0176156 0.0111107 0)
(-0.0265039 0.012217 0)
(-0.0356676 0.0122955 0)
(-0.0444498 0.0114407 0)
(-0.0522245 0.00968993 0)
(-0.0583765 0.0070556 0)
(-0.0623123 0.00359062 0)
(-0.0635141 -0.000540712 0)
(-0.0616247 -0.00501017 0)
(-0.056559 -0.00930812 0)
(-0.0486125 -0.0127899 0)
(-0.0385211 -0.0147885 0)
(-0.0274441 -0.0147929 0)
(-0.016821 -0.0126525 0)
(-0.00808766 -0.00874693 0)
(-0.00231864 -0.00406823 0)
(3.23731e-05 -0.000278945 0)
(-0.000431077 0.00385921 0)
(-0.00538232 0.011305 0)
(-0.0137447 0.0171398 0)
(-0.0242572 0.0208933 0)
(-0.0358486 0.0226565 0)
(-0.0476777 0.0226298 0)
(-0.0589734 0.020958 0)
(-0.0689967 0.0176987 0)
(-0.0770128 0.0128811 0)
(-0.0823014 0.00660951 0)
(-0.0842148 -0.000824439 0)
(-0.0822685 -0.00886189 0)
(-0.0762722 -0.0166374 0)
(-0.0664718 -0.0230541 0)
(-0.0536505 -0.0269546 0)
(-0.0391619 -0.0274094 0)
(-0.0248114 -0.0240722 0)
(-0.0125364 -0.0174884 0)
(-0.00397069 -0.00921575 0)
(-7.10299e-05 -0.00176078 0)
(-0.000594226 0.00709055 0)
(-0.00697374 0.0190202 0)
(-0.0174471 0.027773 0)
(-0.0303782 0.03321 0)
(-0.0444716 0.0356502 0)
(-0.0587875 0.035436 0)
(-0.0724885 0.0327796 0)
(-0.0847728 0.0277545 0)
(-0.0948255 0.0203909 0)
(-0.101815 0.0108243 0)
(-0.104949 -0.000547655 0)
(-0.103554 -0.0129282 0)
(-0.0972307 -0.0250922 0)
(-0.0860473 -0.0354195 0)
(-0.0707047 -0.0421265 0)
(-0.0526704 -0.0436715 0)
(-0.0341396 -0.0393052 0)
(-0.017708 -0.0296022 0)
(-0.00581885 -0.0166965 0)
(-0.000153727 -0.0040889 0)
(-0.000734966 0.0111223 0)
(-0.00839092 0.0284546 0)
(-0.0207801 0.0405814 0)
(-0.0359269 0.0478902 0)
(-0.0523416 0.0510598 0)
(-0.0690196 0.0506447 0)
(-0.0850998 0.0469476 0)
(-0.0997612 0.0400491 0)
(-0.112144 0.0299487 0)
(-0.121322 0.0167649 0)
(-0.126321 0.000946015 0)
(-0.12623 -0.016536 0)
(-0.120344 -0.0341014 0)
(-0.108386 -0.0495558 0)
(-0.0908113 -0.0603312 0)
(-0.0690705 -0.0639955 0)
(-0.0457334 -0.0590516 0)
(-0.024224 -0.0458324 0)
(-0.0081422 -0.0270211 0)
(-0.000247955 -0.00740778 0)
(-0.000854868 0.0158583 0)
(-0.00962035 0.0394211 0)
(-0.0236917 0.0553503 0)
(-0.0408029 0.064731 0)
(-0.059308 0.0687284 0)
(-0.0781744 0.0681836 0)
(-0.0965591 0.0635166 0)
(-0.113667 0.054803 0)
(-0.128635 0.0419667 0)
(-0.140466 0.0250365 0)
(-0.148023 0.00441971 0)
(-0.150108 -0.0188461 0)
(-0.145607 -0.0428811 0)
(-0.13376 -0.0649102 0)
(-0.114559 -0.0814284 0)
(-0.089207 -0.0887691 0)
(-0.060507 -0.0841762 0)
(-0.0328082 -0.0672427 0)
(-0.0112989 -0.0410368 0)
(-0.000394707 -0.0120324 0)
(-0.000951921 0.0211926 0)
(-0.0106335 0.0516977 0)
(-0.0260973 0.071807 0)
(-0.0448347 0.0834523 0)
(-0.0650822 0.0884061 0)
(-0.0858141 0.0878725 0)
(-0.106249 0.0824212 0)
(-0.125668 0.0721123 0)
(-0.143259 0.0567449 0)
(-0.158013 0.03617 0)
(-0.168675 0.0106307 0)
(-0.173777 -0.0188983 0)
(-0.171763 -0.0503872 0)
(-0.161265 -0.080549 0)
(-0.141568 -0.10486 0)
(-0.113284 -0.118069 0)
(-0.0790954 -0.11549 0)
(-0.0441632 -0.0951348 0)
(-0.0156991 -0.0599523 0)
(-0.000645673 -0.0184847 0)
(-0.00102401 0.0270012 0)
(-0.0114004 0.0650139 0)
(-0.0279 0.0895944 0)
(-0.0478086 0.103647 0)
(-0.0692737 0.109669 0)
(-0.0913068 0.109309 0)
(-0.113229 0.103328 0)
(-0.134454 0.0917721 0)
(-0.154296 0.0742757 0)
(-0.171824 0.0504293 0)
(-0.185768 0.020181 0)
(-0.194491 -0.0157353 0)
(-0.196055 -0.0553483 0)
(-0.188442 -0.0950553 0)
(-0.170024 -0.129387 0)
(-0.140387 -0.15128 0)
(-0.101492 -0.153365 0)
(-0.05881 -0.130815 0)
(-0.0217954 -0.0852938 0)
(-0.00107481 -0.027523 0)
(-0.00107513 0.0331487 0)
(-0.0119217 0.0790534 0)
(-0.0290456 0.108258 0)
(-0.0495423 0.124743 0)
(-0.0714842 0.131851 0)
(-0.0939448 0.131767 0)
(-0.116386 0.1255 0)
(-0.138413 0.113103 0)
(-0.159552 0.0940327 0)
(-0.179073 0.0675637 0)
(-0.195855 0.0332367 0)
(-0.208282 -0.00864253 0)
(-0.214217 -0.0564374 0)
(-0.211099 -0.106563 0)
(-0.196303 -0.152917 0)
(-0.167979 -0.186678 0)
(-0.126562 -0.197188 0)
(-0.0768116 -0.175153 0)
(-0.0300508 -0.118759 0)
(-0.00179692 -0.0401748 0)
(-0.00112546 0.0395183 0)
(-0.0122782 0.093489 0)
(-0.0296056 0.127261 0)
(-0.049998 0.145991 0)
(-0.0714524 0.154005 0)
(-0.0931318 0.154133 0)
(-0.114679 0.147703 0)
(-0.135947 0.134827 0)
(-0.156764 0.11481 0)
(-0.176739 0.0865991 0)
(-0.195096 0.0492668 0)
(-0.210506 0.00253447 0)
(-0.220941 -0.0525916 0)
(-0.223585 -0.113001 0)
(-0.214961 -0.17255 0)
(-0.191576 -0.221153 0)
(-0.151522 -0.244732 0)
(-0.0973318 -0.227892 0)
(-0.0408331 -0.16188 0)
(-0.00299297 -0.0577602 0)
(-0.00122761 0.0460778 0)
(-0.0127022 0.108059 0)
(-0.0298826 0.146034 0)
(-0.0494147 0.166486 0)
(-0.0692195 0.17491 0)
(-0.0886023 0.174906 0)
(-0.10744 0.16821 0)
(-0.125893 0.155061 0)
(-0.144167 0.134677 0)
(-0.162331 0.105735 0)
(-0.180144 0.0668473 0)
(-0.196846 0.0170726 0)
(-0.210896 -0.0434492 0)
(-0.219689 -0.11259 0)
(-0.219347 -0.184976 0)
(-0.204906 -0.250281 0)
(-0.171609 -0.291697 0)
(-0.118083 -0.286762 0)
(-0.0541633 -0.215399 0)
(-0.00493537 -0.0818614 0)
(-0.00149485 0.0529983 0)
(-0.0136737 0.122693 0)
(-0.0305238 0.164055 0)
(-0.0484231 0.185214 0)
(-0.0652513 0.193115 0)
(-0.0805772 0.192269 0)
(-0.0946039 0.184898 0)
(-0.107862 0.171441 0)
(-0.120992 0.151119 0)
(-0.134596 0.122439 0)
(-0.149086 0.0836501 0)
(-0.164484 0.0331857 0)
(-0.180096 -0.0297851 0)
(-0.194082 -0.10452 0)
(-0.202885 -0.18728 0)
(-0.200769 -0.268965 0)
(-0.180296 -0.331759 0)
(-0.134889 -0.346691 0)
(-0.0692569 -0.278281 0)
(-0.00798755 -0.114157 0)
(-0.002151 0.060851 0)
(-0.0160532 0.13766 0)
(-0.0326088 0.18091 0)
(-0.0480606 0.201075 0)
(-0.0603884 0.206985 0)
(-0.0696806 0.204187 0)
(-0.0766263 0.195427 0)
(-0.0822068 0.181379 0)
(-0.0875253 0.161338 0)
(-0.0937166 0.133761 0)
(-0.101857 0.0966893 0)
(-0.112817 0.0480917 0)
(-0.126965 -0.0137364 0)
(-0.143701 -0.0895821 0)
(-0.160636 -0.177979 0)
(-0.172462 -0.27264 0)
(-0.170167 -0.357421 0)
(-0.141685 -0.399609 0)
(-0.0838851 -0.346533 0)
(-0.0125218 -0.156016 0)
(-0.00363056 0.0709546 0)
(-0.0212468 0.153757 0)
(-0.0375997 0.196294 0)
(-0.0494697 0.212822 0)
(-0.0553245 0.214666 0)
(-0.0562503 0.208465 0)
(-0.0536701 0.197402 0)
(-0.0491126 0.182325 0)
(-0.0441387 0.162624 0)
(-0.0403446 0.136784 0)
(-0.0393617 0.102803 0)
(-0.0428023 0.0584258 0)
(-0.0520967 0.00136961 0)
(-0.0680761 -0.0704083 0)
(-0.0902114 -0.157859 0)
(-0.11505 -0.258705 0)
(-0.134103 -0.361589 0)
(-0.131021 -0.435193 0)
(-0.0937225 -0.412129 0)
(-0.0186421 -0.207672 0)
(-0.00668229 0.0858018 0)
(-0.0312458 0.172057 0)
(-0.0467059 0.20944 0)
(-0.0526057 0.218478 0)
(-0.0487956 0.213656 0)
(-0.0381587 0.202489 0)
(-0.0231729 0.188288 0)
(-0.00598501 0.171864 0)
(0.0114486 0.152594 0)
(0.0272211 0.12903 0)
(0.0393583 0.0992456 0)
(0.0457429 0.0610067 0)
(0.0441446 0.0118641 0)
(0.0324444 -0.0508849 0)
(0.00906981 -0.13003 0)
(-0.0254452 -0.227493 0)
(-0.0659097 -0.339292 0)
(-0.0944626 -0.442252 0)
(-0.0918126 -0.462314 0)
(-0.0254972 -0.266752 0)
(-0.0127037 0.11063 0)
(-0.0477577 0.193989 0)
(-0.0577187 0.218495 0)
(-0.0514484 0.214595 0)
(-0.0319325 0.2002 0)
(-0.00487216 0.18286 0)
(0.0260562 0.16527 0)
(0.0582317 0.147747 0)
(0.0895844 0.129435 0)
(0.1182 0.108899 0)
(0.142061 0.0843604 0)
(0.158895 0.0538122 0)
(0.166035 0.015031 0)
(0.160542 -0.0346767 0)
(0.139158 -0.0987544 0)
(0.0994061 -0.182164 0)
(0.0407274 -0.28905 0)
(-0.0216103 -0.410347 0)
(-0.0678295 -0.480496 0)
(-0.0299832 -0.326889 0)
(-0.0215253 0.149387 0)
(-0.0662447 0.212884 0)
(-0.0528097 0.212573 0)
(-0.0196649 0.19059 0)
(0.0256495 0.165958 0)
(0.0749606 0.143764 0)
(0.124437 0.124706 0)
(0.171939 0.108004 0)
(0.216025 0.0923843 0)
(0.255354 0.0764029 0)
(0.288337 0.0585384 0)
(0.31298 0.0372021 0)
(0.326599 0.0107013 0)
(0.32608 -0.023139 0)
(0.307221 -0.0671955 0)
(0.26561 -0.127203 0)
(0.195086 -0.213051 0)
(0.102806 -0.333479 0)
(-0.00597756 -0.449767 0)
(-0.023705 -0.377167 0)
(-0.027204 0.230256 0)
(-0.0359461 0.223856 0)
(0.0464129 0.176584 0)
(0.125181 0.137205 0)
(0.201262 0.107159 0)
(0.270345 0.0852393 0)
(0.331959 0.0691412 0)
(0.386457 0.056747 0)
(0.43416 0.0464178 0)
(0.474979 0.0368509 0)
(0.508232 0.0269316 0)
(0.532645 0.0156572 0)
(0.5459 0.00200271 0)
(0.545484 -0.0149482 0)
(0.527116 -0.0372781 0)
(0.486172 -0.0692153 0)
(0.412227 -0.120374 0)
(0.302694 -0.213242 0)
(0.124497 -0.348195 0)
(0.0233175 -0.378558 0)
(0.214706 0.136052 0)
(0.286017 0.0987839 0)
(0.445712 0.0570837 0)
(0.548497 0.0365354 0)
(0.621153 0.0239582 0)
(0.676305 0.0160392 0)
(0.719423 0.011076 0)
(0.753809 0.00784172 0)
(0.781492 0.00554634 0)
(0.803462 0.00369385 0)
(0.819909 0.00194001 0)
(0.830401 5.22967e-05 0)
(0.833973 -0.00226569 0)
(0.829128 -0.00480825 0)
(0.812546 -0.00831872 0)
(0.781702 -0.0134365 0)
(0.724206 -0.0232271 0)
(0.635405 -0.0407049 0)
(0.431287 -0.0914005 0)
(0.27086 -0.153571 0)
)
;

boundaryField
{
    movingWall
    {
        type            calculated;
        value           uniform (1 0 0);
    }
    fixedWalls
    {
        type            calculated;
        value           uniform (0 0 0);
    }
    frontAndBack
    {
        type            empty;
    }
}


// ************************************************************************* //
