/*--------------------------------*- C++ -*----------------------------------*\
  =========                 |
  \\      /  F ield         | OpenFOAM: The Open Source CFD Toolbox
   \\    /   O peration     | Website:  https://openfoam.org
    \\  /    A nd           | Version:  13
     \\/     M anipulation  |
\*---------------------------------------------------------------------------*/
FoamFile
{
    format      ascii;
    class       volScalarField;
    location    "2";
    object      p;
}
// * * * * * * * * * * * * * * * * * * * * * * * * * * * * * * * * * * * * * //

dimensions      [0 2 -2 0 0 0 0];

internalField   nonuniform List<scalar> 
400
(
-1.39182e-08
-0.000342002
-0.000623276
-0.000718602
-0.000562691
-0.000139513
0.000543383
0.00146632
0.00259972
0.00390169
0.005314
0.00676074
0.00814619
0.00936421
0.0103101
0.0109014
0.0111027
0.0109506
0.0105808
0.0101676
0.000338064
-1.19864e-05
-0.000248282
-0.000291911
-0.000116451
0.000289475
0.000922029
0.00176743
0.00280207
0.00398988
0.00527885
0.00660038
0.00786783
0.00898553
0.00986016
0.0104194
0.0106332
0.0105322
0.0102071
0.00978954
0.000633913
0.000204116
-4.99434e-05
-8.10684e-05
9.63636e-05
0.000484119
0.00107839
0.00186979
0.00284087
0.00396207
0.00518768
0.00645338
0.00767722
0.00876496
0.0096225
0.0101744
0.0103854
0.0102761
0.00990529
0.0093858
0.000742166
0.000200294
-0.000111491
-0.000161399
2.75568e-06
0.000372938
0.000943795
0.00170948
0.00265867
0.00376855
0.00499877
0.00628882
0.00755418
0.00869363
0.00960015
0.0101818
0.010387
0.0102254
0.00974104
0.00905709
0.000556202
-9.83377e-05
-0.000477159
-0.000556639
-0.000410845
-5.52512e-05
0.000504246
0.00126607
0.0022259
0.00336851
0.00465923
0.00604148
0.00742431
0.00869333
0.00971883
0.0103802
0.0105992
0.0103707
0.00973572
0.00884834
2.49234e-06
-0.000763235
-0.00121181
-0.0013248
-0.00119849
-0.000853848
-0.000295914
0.000479415
0.00147649
0.00268992
0.00409499
0.00563343
0.00721408
0.00870278
0.00993698
0.0107524
0.0110275
0.0107324
0.00990782
0.00875695
-0.000980699
-0.00186048
-0.0023815
-0.00253004
-0.00242436
-0.00209033
-0.00153103
-0.000734896
0.000313756
0.00162297
0.00318073
0.00493911
0.00680354
0.00862063
0.0101855
0.0112699
0.011682
0.0113427
0.0102803
0.00876757
-0.00245633
-0.00345859
-0.00405711
-0.00424422
-0.00416392
-0.00384798
-0.00329711
-0.00249053
-0.00139775
8.36694e-06
0.00173709
0.00375997
0.00599179
0.00826586
0.0103289
0.0118636
0.0125632
0.0122502
0.0109001
0.00887814
-0.00449694
-0.00563464
-0.00631805
-0.00654841
-0.00650378
-0.00622487
-0.00571082
-0.00493049
-0.00383529
-0.00237223
-0.000498925
0.00179345
0.00445291
0.00732111
0.0101039
0.0123696
0.0136302
0.0135181
0.0118609
0.00913193
-0.00719169
-0.00847945
-0.00925451
-0.00953151
-0.00953684
-0.00932577
-0.0088985
-0.00821419
-0.00720467
-0.00578552
-0.00386792
-0.00138037
0.00169921
0.00526891
0.0090333
0.0124396
0.0147339
0.0152027
0.0133277
0.00967041
-0.0106554
-0.0121034
-0.0129688
-0.0132851
-0.0133506
-0.0132437
-0.0129704
-0.012484
-0.0116995
-0.0105003
-0.00874093
-0.00625627
-0.00290306
0.00136826
0.00635575
0.0114357
0.0155148
0.0173025
0.0155641
0.0108266
-0.0150456
-0.0166455
-0.0175754
-0.0178932
-0.0180062
-0.0180271
-0.0179747
-0.0178031
-0.0174192
-0.0166827
-0.0153925
-0.0132724
-0.00998393
-0.005219
0.00109135
0.00841365
0.0153292
0.0197027
0.0189662
0.0132949
-0.0205982
-0.0222896
-0.0232002
-0.0234133
-0.0235039
-0.0236307
-0.0238299
-0.024064
-0.0242458
-0.0242288
-0.0237719
-0.022485
-0.0197864
-0.0150047
-0.00755409
0.0024231
0.0133985
0.0222318
0.0241496
0.0184355
-0.0277054
-0.0292952
-0.0299779
-0.0298472
-0.0297363
-0.029853
-0.0302473
-0.030892
-0.0317168
-0.0325894
-0.0332528
-0.033224
-0.0316797
-0.0274856
-0.0193624
-0.0066647
0.00945241
0.0250479
0.0322223
0.0287601
-0.0370784
-0.0380368
-0.0380234
-0.0370781
-0.0364146
-0.0362648
-0.0366668
-0.0375892
-0.0389753
-0.0407122
-0.0425405
-0.0439079
-0.0437995
-0.0405667
-0.0322209
-0.0170186
0.00488185
0.0295475
0.0455167
0.0486006
-0.050165
-0.0491333
-0.0474291
-0.0448155
-0.0430061
-0.0421644
-0.0422509
-0.0431835
-0.0448855
-0.0472344
-0.0499446
-0.0523809
-0.0533373
-0.050805
-0.0420881
-0.024337
0.00372309
0.039601
0.0688537
0.0848248
-0.0697534
-0.0631864
-0.0578568
-0.0522391
-0.0484876
-0.0464504
-0.0458771
-0.0465452
-0.0482829
-0.0508863
-0.0539731
-0.0567642
-0.0578364
-0.0548501
-0.0445618
-0.0231897
0.0120011
0.061592
0.109354
0.146784
-0.104295
-0.0818896
-0.0692169
-0.0583819
-0.0515696
-0.0478091
-0.0463555
-0.0466585
-0.048315
-0.0509307
-0.0539328
-0.0563166
-0.0563922
-0.0514347
-0.037714
-0.0105356
0.0342209
0.100379
0.172772
0.247123
-0.166441
-0.0996598
-0.0748422
-0.0569484
-0.0472304
-0.0426481
-0.0412841
-0.0420179
-0.0441496
-0.0470837
-0.0500656
-0.0518876
-0.0506265
-0.0430371
-0.0250734
0.00928613
0.0661939
0.154139
0.265633
0.426393
-0.400123
-0.137877
-0.0755069
-0.0499552
-0.0373265
-0.032685
-0.0323515
-0.0342543
-0.037384
-0.0410192
-0.0443105
-0.0459587
-0.0439394
-0.0351563
-0.0145253
0.0258354
0.0959161
0.219312
0.408348
0.774848
)
;

boundaryField
{
    movingWall
    {
        type            zeroGradient;
    }
    fixedWalls
    {
        type            zeroGradient;
    }
    frontAndBack
    {
        type            empty;
    }
}


// ************************************************************************* //
