/*--------------------------------*- C++ -*----------------------------------*\
  =========                 |
  \\      /  F ield         | OpenFOAM: The Open Source CFD Toolbox
   \\    /   O peration     | Website:  https://openfoam.org
    \\  /    A nd           | Version:  13
     \\/     M anipulation  |
\*---------------------------------------------------------------------------*/
FoamFile
{
    format      ascii;
    class       surfaceScalarField;
    location    "2";
    object      phi;
}
// * * * * * * * * * * * * * * * * * * * * * * * * * * * * * * * * * * * * * //

dimensions      [0 3 -1 0 0 0 0];

internalField   nonuniform List<scalar> 
760
(
-4.06937e-06
4.06953e-06
-4.15612e-05
3.74918e-05
-0.000108197
6.66359e-05
-0.000191651
8.34541e-05
-0.000280999
8.93478e-05
-0.000367928
8.69289e-05
-0.000446271
7.83426e-05
-0.000511149
6.48782e-05
-0.000558297
4.71478e-05
-0.000583777
2.54806e-05
-0.000584174
3.96901e-07
-0.000557051
-2.71233e-05
-0.000502022
-5.50289e-05
-0.000421701
-8.03214e-05
-0.000322673
-9.9028e-05
-0.000215902
-0.00010677
-0.000116138
-9.97642e-05
-3.98768e-05
-7.62612e-05
-1.22356e-06
-3.86533e-05
-1.22355e-06
-3.84769e-05
4.25464e-05
-0.000152291
0.000151305
-0.000323466
0.000237811
-0.000527761
0.000287749
-0.000742711
0.000304298
-0.00095002
0.000294239
-0.00113533
0.000263649
-0.00128702
0.000216574
-0.00139519
0.000155311
-0.00145113
8.14277e-05
-0.00144779
-2.94283e-06
-0.00138071
-9.42021e-05
-0.00124999
-0.000185749
-0.00106218
-0.000268139
-0.000831987
-0.000329217
-0.000582893
-0.000355865
-0.00034555
-0.000337108
-0.000153288
-0.000268523
-3.4225e-05
-0.000157716
-3.54487e-05
-7.33058e-05
0.000115852
-0.00025653
0.00033453
-0.000514113
0.000495393
-0.000812133
0.000585769
-0.00112091
0.000613073
-0.00141621
0.000589537
-0.00167868
0.000526127
-0.00189252
0.000430414
-0.00204422
0.000307004
-0.00212205
0.00015926
-0.00211653
-8.46127e-06
-0.00202181
-0.000188919
-0.00183793
-0.000369629
-0.00157347
-0.0005326
-0.00124787
-0.000654823
-0.000892274
-0.000711457
-0.000547681
-0.000681701
-0.000259298
-0.000556906
-6.7659e-05
-0.000349355
-0.000103108
-0.00010202
0.000217872
-0.000344942
0.000577452
-0.000676275
0.000826727
-0.00105233
0.000961824
-0.00143751
0.00099825
-0.00180365
0.00095568
-0.0021285
0.000850974
-0.00239379
0.000695704
-0.00258371
0.000496927
-0.00268421
0.000259755
-0.00268341
-9.25917e-06
-0.00257312
-0.000299211
-0.00235172
-0.000591029
-0.00202754
-0.000856782
-0.00162227
-0.00106009
-0.00117289
-0.00116084
-0.000730129
-0.00112446
-0.000352261
-0.000934774
-9.46657e-05
-0.000606951
-0.000197773
-0.000126081
0.000343953
-0.000421332
0.000872702
-0.000818351
0.00122375
-0.00126398
0.00140745
-0.00171728
0.00145155
-0.00214726
0.00138566
-0.00253001
0.00123373
-0.00284598
0.00101167
-0.00307776
0.000728706
-0.00320901
0.000391008
-0.00322479
6.51273e-06
-0.00311279
-0.000411206
-0.00286733
-0.000836494
-0.00249359
-0.00123052
-0.00201313
-0.00154054
-0.00146793
-0.00170605
-0.000920278
-0.00167211
-0.000445849
-0.0014092
-0.000119639
-0.000933161
-0.000317412
-0.000148017
0.00049197
-0.000492312
0.001217
-0.000951841
0.00168327
-0.00146433
0.00191994
-0.00198398
0.00197121
-0.00247776
0.00187943
-0.00292112
0.00167709
-0.0032941
0.00138465
-0.00357824
0.00101285
-0.00375481
0.000567579
-0.0038044
5.60986e-05
-0.00370891
-0.000506698
-0.00345491
-0.00109049
-0.00304049
-0.00164494
-0.00248349
-0.00209754
-0.00182953
-0.00236001
-0.00115518
-0.00234646
-0.000560604
-0.00200378
-0.000149257
-0.00134451
-0.000466669
-0.000170244
0.000662214
-0.000564415
0.00161117
-0.00108768
0.00220654
-0.00166868
0.00250093
-0.00225718
0.00255971
-0.00281897
0.00244122
-0.00332996
0.00218808
-0.00377082
0.00182551
-0.00412277
0.0013648
-0.00436473
0.000809537
-0.00447211
0.000163482
-0.00441807
-0.00056074
-0.0041775
-0.00133107
-0.00373561
-0.00208682
-0.00310055
-0.0027326
-0.00231787
-0.00314268
-0.0014804
-0.00318393
-0.000722631
-0.00276155
-0.000191847
-0.00187529
-0.000658516
-0.000194799
0.000857013
-0.000643137
0.00205951
-0.00123472
0.00279812
-0.00188851
0.00315473
-0.00255033
0.00322153
-0.00318583
0.00307673
-0.00377278
0.00277503
-0.00429399
0.00234672
-0.00473163
0.00180245
-0.00506304
0.00114095
-0.00525807
0.000358505
-0.00527901
-0.000539801
-0.00508426
-0.00152581
-0.00463866
-0.00253242
-0.00393117
-0.00344009
-0.00299914
-0.00407472
-0.00195027
-0.0042328
-0.00096489
-0.00374693
-0.000258201
-0.00258198
-0.000916717
-0.000223484
0.0010805
-0.000733004
0.00256903
-0.00139947
0.00346459
-0.00213099
0.00388624
-0.00286979
0.00396033
-0.00358282
0.00378976
-0.00425151
0.00344372
-0.00486283
0.00295804
-0.00540203
0.00234165
-0.00584668
0.00158559
-0.00616198
0.000673811
-0.0062985
-0.000403283
-0.00619401
-0.0016303
-0.00578449
-0.00294194
-0.00502689
-0.00419769
-0.00393566
-0.00516596
-0.00262445
-0.005544
-0.00132794
-0.00504344
-0.000362792
-0.00354713
-0.00127951
-0.000258296
0.00133879
-0.000838272
0.003149
-0.00158676
0.00421308
-0.00239904
0.00469851
-0.00321431
0.0047756
-0.00400243
0.00457789
-0.00475069
0.00419197
-0.0054527
0.00366006
-0.00609964
0.00298859
-0.00667246
0.00215841
-0.00713468
0.00113603
-0.00742686
-0.000111102
-0.00746489
-0.00159228
-0.0071494
-0.00325744
-0.00639119
-0.0049559
-0.00516021
-0.00639694
-0.00355383
-0.00715038
-0.00185679
-0.00674048
-0.000524754
-0.00487916
-0.00180426
-0.000302176
0.00164097
-0.000964144
0.00381097
-0.00180073
0.00504967
-0.00269179
0.00558957
-0.00357432
0.00565813
-0.00442309
0.00542667
-0.00523349
0.00500236
-0.00600837
0.00443494
-0.00674805
0.00372827
-0.00744119
0.00285155
-0.00805514
0.00174998
-0.00852614
0.000359906
-0.00875353
-0.00136489
-0.00860248
-0.00340848
-0.00792785
-0.00563053
-0.00662983
-0.00769496
-0.00474987
-0.00903034
-0.00258985
-0.0089005
-0.00076805
-0.00670096
-0.00257231
-0.000360304
0.00200127
-0.00111861
0.00456928
-0.00204613
0.00597718
-0.00300457
0.00654802
-0.00393046
0.00658402
-0.00480603
0.00630223
-0.00563693
0.00583326
-0.00643734
0.00523535
-0.00721965
0.00451058
-0.00798502
0.00361692
-0.0087124
0.00247736
-0.00934543
0.000992928
-0.00977997
-0.000930349
-0.00985891
-0.00332954
-0.00938385
-0.00610559
-0.00816534
-0.00891347
-0.00613496
-0.0110607
-0.00353479
-0.0115007
-0.00111924
-0.00911651
-0.00369156
-0.000442389
0.00244366
-0.00131502
0.0054419
-0.00232925
0.00699141
-0.00332732
0.00754609
-0.00424964
0.00750634
-0.00508984
0.00714243
-0.00586613
0.00660956
-0.00660536
0.00597457
-0.00733379
0.00523901
-0.00806926
0.0043524
-0.00881105
0.00321914
-0.00952569
0.00170757
-0.0101283
-0.000327766
-0.0104688
-0.00298903
-0.010319
-0.00625536
-0.00940003
-0.00983244
-0.00748176
-0.012979
-0.00462533
-0.0143571
-0.00159821
-0.0121436
-0.00528977
-0.000566712
0.00301037
-0.00157526
0.00645045
-0.0026566
0.00807275
-0.00363804
0.00852753
-0.00447442
0.00834272
-0.00517827
0.00784628
-0.00578399
0.00721528
-0.00633215
0.00652273
-0.00686325
0.00577011
-0.00741364
0.00490279
-0.00800937
0.00381487
-0.00865479
0.00235299
-0.00931227
0.000329718
-0.00987815
-0.00242316
-0.010144
-0.00598955
-0.00977714
-0.0101993
-0.0083672
-0.0143889
-0.00566065
-0.0170637
-0.00219365
-0.0156106
-0.00748342
-0.000767492
0.00377787
-0.00193145
0.00761441
-0.00302468
0.00916598
-0.00388081
0.00938366
-0.00449293
0.00895484
-0.00490735
0.0082607
-0.00518177
0.0074897
-0.00537245
0.00671341
-0.00553304
0.00593069
-0.00571634
0.00508609
-0.00597495
0.00407347
-0.00635701
0.00273505
-0.00689398
0.000866693
-0.00756407
-0.00175306
-0.00824572
-0.0053079
-0.00863274
-0.00981224
-0.00818489
-0.0148368
-0.0062528
-0.0189957
-0.00281788
-0.0190455
-0.0103013
-0.0011035
0.00488137
-0.00241405
0.00892497
-0.00337797
0.0101299
-0.00389853
0.00990422
-0.00405644
0.00911275
-0.00395837
0.00816263
-0.0036966
0.00722793
-0.00334526
0.00636208
-0.00296764
0.00555307
-0.00262561
0.00474406
-0.00238858
0.00383644
-0.00233941
0.00268589
-0.00257306
0.00110034
-0.00317241
-0.00115371
-0.00415517
-0.00432514
-0.00535326
-0.00861415
-0.00623995
-0.0139501
-0.00582143
-0.0194143
-0.00324995
-0.021617
-0.0135513
-0.00165625
0.00653762
-0.00296543
0.0102342
-0.00343983
0.0106043
-0.00321753
0.00968193
-0.00255238
0.0084476
-0.00164153
0.00725178
-0.000615552
0.00620195
0.000440819
0.00530571
0.00146649
0.0045274
0.00240518
0.00380537
0.00318895
0.00305267
0.00372348
0.00215136
0.00387687
0.000946944
0.00348358
-0.000760417
0.0023763
-0.00321786
0.000495037
-0.00673289
-0.00185817
-0.0115969
-0.00362289
-0.0176495
-0.00305239
-0.0221875
-0.0166036
-0.00236473
0.00890235
-0.0030223
0.0108917
-0.00213286
0.00971486
-0.000454924
0.00800399
0.00151825
0.00647443
0.00353182
0.00523821
0.00546373
0.00427003
0.00725888
0.00351056
0.00888922
0.00289706
0.0103283
0.00236626
0.0115319
0.00184904
0.01242
0.00126329
0.0128586
0.000508364
0.0126506
-0.00055246
0.011531
-0.00209817
0.00920914
-0.00441109
0.00556641
-0.00795416
0.00126052
-0.0133436
-0.00147371
-0.0194533
-0.0180774
-0.00191198
0.0108143
0.00048972
0.00849002
0.00434953
0.00585505
0.0081128
0.00424072
0.011494
0.00309323
0.0144349
0.00229734
0.016959
0.00174586
0.0191166
0.00135305
0.0209532
0.00106038
0.0224951
0.000824461
0.0237367
0.000607414
0.0246281
0.000371901
0.0250557
8.07167e-05
0.0248474
-0.000344172
0.0237131
-0.000963843
0.0212374
-0.00193542
0.01689
-0.00360674
0.0102454
-0.00669906
0.00272175
-0.0119296
-0.0153556
0.0108143
0.0193043
0.0251594
0.0294001
0.0324933
0.0347907
0.0365365
0.0378896
0.03895
0.0397744
0.0403818
0.0407537
0.0408345
0.0404903
0.0395264
0.037591
0.0339843
0.0272852
0.0153556
)
;

boundaryField
{
    movingWall
    {
        type            calculated;
        value           uniform 0;
    }
    fixedWalls
    {
        type            calculated;
        value           uniform 0;
    }
    frontAndBack
    {
        type            empty;
    }
}


// ************************************************************************* //
