/*--------------------------------*- C++ -*----------------------------------*\
  =========                 |
  \\      /  F ield         | OpenFOAM: The Open Source CFD Toolbox
   \\    /   O peration     | Website:  https://openfoam.org
    \\  /    A nd           | Version:  13
     \\/     M anipulation  |
\*---------------------------------------------------------------------------*/
FoamFile
{
    format      ascii;
    class       surfaceScalarField;
    location    "2";
    object      phi_0;
}
// * * * * * * * * * * * * * * * * * * * * * * * * * * * * * * * * * * * * * //

dimensions      [0 3 -1 0 0 0 0];

internalField   nonuniform List<scalar> 
760
(
-4.09814e-06
4.0983e-06
-4.16163e-05
3.75181e-05
-0.000108243
6.66263e-05
-0.000191642
8.33992e-05
-0.000280893
8.9251e-05
-0.000367694
8.68014e-05
-0.000445895
7.82008e-05
-0.000510636
6.47414e-05
-0.000557674
4.70376e-05
-0.000583093
2.5419e-05
-0.000583495
4.0212e-07
-0.000556455
-2.70404e-05
-0.000501582
-5.48732e-05
-0.000421465
-8.01168e-05
-0.000322648
-9.88172e-05
-0.000216042
-0.000106606
-0.000116351
-9.96909e-05
-4.00562e-05
-7.62948e-05
-1.29463e-06
-3.87615e-05
-1.29462e-06
-3.85012e-05
4.25994e-05
-0.000152298
0.000151315
-0.000323368
0.000237696
-0.000527456
0.000287487
-0.000742106
0.000303901
-0.000949052
0.000293747
-0.00113397
0.000263121
-0.00128531
0.000216077
-0.00139319
0.000154918
-0.00144898
8.12104e-05
-0.00144565
-2.92489e-06
-0.00137877
-9.39178e-05
-0.00124843
-0.000185216
-0.00106111
-0.000267434
-0.000831457
-0.000328475
-0.000582814
-0.000355249
-0.000345742
-0.000336763
-0.000153531
-0.000268505
-3.4356e-05
-0.000157937
-3.56507e-05
-7.32826e-05
0.000115882
-0.00025638
0.000334412
-0.000513699
0.000495015
-0.000811312
0.0005851
-0.00111956
0.000612147
-0.00141425
0.000588439
-0.0016761
0.000524973
-0.00188937
0.000429342
-0.00204061
0.000306161
-0.00211819
0.000158787
-0.00211267
-8.4458e-06
-0.00201823
-0.000188354
-0.0018349
-0.000368544
-0.0015712
-0.000531139
-0.00124643
-0.000653241
-0.000891606
-0.000710074
-0.000547561
-0.000680808
-0.000259425
-0.000556641
-6.77679e-05
-0.000349594
-0.000103419
-0.000101928
0.00021781
-0.000344573
0.000577058
-0.000675443
0.000825885
-0.00105086
0.000960517
-0.00143526
0.000996546
-0.00180054
0.000953718
-0.00212451
0.000848944
-0.00238899
0.000693826
-0.00257827
0.000495437
-0.00267837
0.000258887
-0.0026775
-9.3129e-06
-0.00256752
-0.000298338
-0.0023468
-0.000589258
-0.00202362
-0.000854321
-0.00161953
-0.00105733
-0.0011713
-0.0011583
-0.000729472
-0.00112264
-0.000352155
-0.000933958
-9.47224e-05
-0.000607027
-0.000198141
-0.000125915
0.000343725
-0.000420728
0.000871871
-0.000817074
0.00122223
-0.00126182
0.00140526
-0.00171409
0.00144881
-0.00214293
0.00138256
-0.00252453
0.00123055
-0.00283942
0.00100871
-0.0030703
0.000726316
-0.00320094
0.000389523
-0.00321649
6.2354e-06
-0.00310474
-0.000410088
-0.00286002
-0.000833971
-0.00248751
-0.00122684
-0.0020086
-0.00153624
-0.00146503
-0.00170187
-0.000918823
-0.00166885
-0.000445385
-0.0014074
-0.000119614
-0.000932797
-0.000317755
-0.000147784
0.000491509
-0.000491495
0.00121558
-0.000950156
0.00168089
-0.00146154
0.00191665
-0.0019799
0.00196718
-0.00247227
0.00187493
-0.00291418
0.00167246
-0.00328575
0.00138029
-0.00356866
0.00100922
-0.00374428
0.000565145
-0.00379334
5.52993e-05
-0.0036979
-0.000505536
-0.0034446
-0.00108727
-0.00303156
-0.00163988
-0.0024765
-0.0020913
-0.00182478
-0.0023536
-0.00115256
-0.00234106
-0.000559601
-0.00200036
-0.000149105
-0.00134329
-0.00046686
-0.000169961
0.000661469
-0.000563436
0.00160906
-0.00108568
0.00220314
-0.00166538
0.00249635
-0.00225237
0.00255417
-0.00281249
0.00243504
-0.0033217
0.00218167
-0.00376078
0.00181937
-0.00411105
0.00135949
-0.00435159
0.000805677
-0.00445798
0.000161694
-0.00440359
-0.000559925
-0.0041635
-0.00132736
-0.00372304
-0.00208034
-0.0030903
-0.00272404
-0.00231055
-0.00313334
-0.00147609
-0.00317552
-0.000720817
-0.00275564
-0.000191491
-0.00187262
-0.000658351
-0.000194491
0.00085596
-0.000642075
0.00205664
-0.00123254
0.00279361
-0.00188492
0.00314873
-0.00254505
0.00321429
-0.00317864
0.00306863
-0.0037635
0.00276653
-0.0042825
0.00233838
-0.00471795
0.00179494
-0.00504733
0.00113506
-0.00524073
0.000355087
-0.00526072
-0.000539927
-0.00506604
-0.00152204
-0.00462173
-0.00252464
-0.00391685
-0.00342892
-0.00298847
-0.00406172
-0.00194369
-0.0042203
-0.000961924
-0.00373741
-0.000257537
-0.00257701
-0.000915888
-0.000223185
0.00107915
-0.000731964
0.00256542
-0.00139732
0.00345896
-0.00212738
0.00387878
-0.00286441
0.00395133
-0.00357537
0.00377959
-0.00424171
0.00343286
-0.00485044
0.00294712
-0.00538692
0.00233142
-0.00582889
0.00157702
-0.00614183
0.000668027
-0.00627667
-0.000405086
-0.00617163
-0.00162709
-0.00576308
-0.00293319
-0.00500817
-0.00418383
-0.00392119
-0.0051487
-0.00261512
-0.00552636
-0.0013235
-0.00502903
-0.000361707
-0.0035388
-0.0012776
-0.00025805
0.0013372
-0.000837387
0.00314476
-0.00158488
0.00420646
-0.0023958
0.0046897
-0.00320935
0.00476488
-0.0039954
0.00456563
-0.00474119
0.00417866
-0.00544039
0.00364632
-0.00608425
0.00297527
-0.00665387
0.00214664
-0.00711308
0.00112725
-0.00740289
-0.000115281
-0.00743969
-0.00159028
-0.00712464
-0.00324824
-0.00636888
-0.00493959
-0.00514232
-0.00637526
-0.00354178
-0.00712691
-0.00185073
-0.00672008
-0.000523161
-0.00486636
-0.00180076
-0.000302037
0.00163923
-0.00096358
0.0038063
-0.00179942
0.0050423
-0.0026894
0.00557968
-0.00357048
0.00564595
-0.0044174
0.00541256
-0.00522552
0.00498678
-0.00599769
0.00441849
-0.00673428
0.00371187
-0.00742411
0.00283647
-0.0080348
0.00173794
-0.00850305
0.000352975
-0.0087287
-0.00136464
-0.00857746
-0.00339948
-0.00790457
-0.00561248
-0.00661038
-0.00766945
-0.00473603
-0.00900125
-0.00258242
-0.00887369
-0.000765928
-0.00668285
-0.00256669
-0.000360331
0.00199956
-0.00111855
0.00456452
-0.00204575
0.0059695
-0.0030036
0.00653752
-0.00392856
0.00657092
-0.00480284
0.00628684
-0.00563206
0.00581599
-0.00643036
0.00521679
-0.00721017
0.00449168
-0.00797277
0.00359907
-0.00869733
0.0024625
-0.00932781
0.000983462
-0.0097605
-0.000931946
-0.00983865
-0.00332134
-0.00936416
-0.00608696
-0.00814789
-0.00888573
-0.00612153
-0.0110276
-0.00352684
-0.0114684
-0.00111669
-0.009093
-0.00368338
-0.000442635
0.0024422
-0.00131563
0.00543751
-0.00233013
0.00698401
-0.00332831
0.0075357
-0.00425053
0.00749313
-0.00509037
0.00712669
-0.00586604
0.00659165
-0.00660432
0.00595508
-0.00733151
0.00521886
-0.00806549
0.00433305
-0.00880565
0.00320266
-0.00951868
0.00169649
-0.0101198
-0.000330807
-0.0104591
-0.00298205
-0.0103085
-0.00623757
-0.00938933
-0.00980491
-0.00747206
-0.0129449
-0.00461847
-0.014322
-0.00159555
-0.0121159
-0.00527893
-0.000567201
0.0030094
-0.00157663
0.00644694
-0.00265894
0.00806632
-0.00364135
0.00851811
-0.00447866
0.00833044
-0.00518338
0.0078314
-0.00578987
0.00719815
-0.00633868
0.00650389
-0.00687027
0.00575045
-0.00742098
0.00488376
-0.00801682
0.0037985
-0.00866207
0.00234174
-0.00931891
0.000326034
-0.00988352
-0.00241744
-0.0101472
-0.00597387
-0.00977758
-0.0101745
-0.00836491
-0.0143575
-0.00565714
-0.0170297
-0.00219153
-0.0155815
-0.00747046
-0.000768176
0.00377757
-0.00193346
0.00761222
-0.00302832
0.00916118
-0.00388628
0.00937607
-0.00450039
0.00894456
-0.00491694
0.00824795
-0.00519358
0.00747479
-0.00538655
0.00669685
-0.00554941
0.00591332
-0.00573487
0.00506922
-0.00599532
0.00405895
-0.00637865
0.00272507
-0.00691595
0.00086334
-0.007585
-0.00174839
-0.00826384
-0.00529503
-0.00864617
-0.00979222
-0.00819235
-0.0148114
-0.00625477
-0.0189673
-0.00281724
-0.0190191
-0.0102877
-0.00110421
0.00488179
-0.00241628
0.00892428
-0.0033822
0.0101271
-0.00390518
0.00989905
-0.00406585
0.00910523
-0.00397084
0.00815294
-0.0037124
0.00721635
-0.0033646
0.00634905
-0.00299061
0.00553932
-0.00265208
0.00473069
-0.00241813
0.003825
-0.00237122
0.00267816
-0.00260585
0.00109797
-0.00320446
-0.00114978
-0.00418435
-0.00431513
-0.00537717
-0.0085994
-0.00625637
-0.0139322
-0.00582951
-0.0193942
-0.00325158
-0.021597
-0.0135393
-0.00165671
0.0065385
-0.0029671
0.0102347
-0.00344335
0.0106034
-0.00322348
0.00967918
-0.00256127
0.00844302
-0.00165381
0.00724548
-0.000631632
0.00619417
0.000420614
0.00529681
0.00144199
0.00451794
0.0023765
0.00379618
0.00315662
0.00304488
0.0036885
0.00214628
0.00384073
0.000945736
0.00344811
-0.000757162
0.00234354
-0.00321056
0.000467112
-0.00672298
-0.00187911
-0.0115859
-0.00363505
-0.0176382
-0.00305622
-0.0221758
-0.0165955
-0.00236466
0.00890317
-0.00302265
0.0108927
-0.0021343
0.00971501
-0.000458153
0.00800303
0.00151257
0.00647229
0.00352309
0.00523496
0.00545141
0.00426585
0.00724253
0.00350569
0.00886861
0.00289186
0.0103035
0.00236125
0.0115035
0.0018449
0.012389
0.00126078
0.0128266
0.00050814
0.0126195
-0.000550075
0.0115025
-0.00209358
0.00918497
-0.0044054
0.0055478
-0.00794877
0.00124864
-0.0133391
-0.00147846
-0.0194487
-0.018074
-0.0019115
0.0108147
0.00049062
0.00849054
0.00435029
0.00585534
0.00811274
0.00424059
0.0114924
0.00309263
0.0144311
0.00229631
0.0169524
0.00174448
0.0191067
0.00135142
0.0209399
0.00105867
0.0224783
0.000822878
0.0237169
0.000606209
0.0246064
0.00037134
0.0250335
8.09868e-05
0.0248264
-0.000342938
0.0236948
-0.000961932
0.0212227
-0.00193335
0.0168791
-0.00360517
0.0102383
-0.00669827
0.0027188
-0.0119292
-0.0153552
0.0108147
0.0193052
0.0251605
0.0294011
0.0324938
0.0347901
0.0365345
0.037886
0.0389446
0.0397675
0.0403737
0.0407451
0.0408261
0.0404831
0.0395212
0.0375878
0.0339827
0.0272844
0.0153552
)
;

boundaryField
{
    movingWall
    {
        type            calculated;
        value           uniform 0;
    }
    fixedWalls
    {
        type            calculated;
        value           uniform 0;
    }
    frontAndBack
    {
        type            empty;
    }
}


// ************************************************************************* //
