/*--------------------------------*- C++ -*----------------------------------*\
  =========                 |
  \\      /  F ield         | OpenFOAM: The Open Source CFD Toolbox
   \\    /   O peration     | Website:  https://openfoam.org
    \\  /    A nd           | Version:  13
     \\/     M anipulation  |
\*---------------------------------------------------------------------------*/
FoamFile
{
    format      ascii;
    class       volVectorField;
    location    "2";
    object      U;
}
// * * * * * * * * * * * * * * * * * * * * * * * * * * * * * * * * * * * * * //

dimensions      [0 1 -1 0 0 0 0];

internalField   nonuniform List<vector> 
400
(
(8.71782e-05 -8.62948e-05 0)
(-0.000297318 6.01695e-05 0)
(-0.00139527 0.000195076 0)
(-0.00294916 0.000268984 0)
(-0.00472105 0.000295694 0)
(-0.00651704 0.000291611 0)
(-0.0081951 0.000267307 0)
(-0.0096482 0.000227544 0)
(-0.0107871 0.000173202 0)
(-0.0115299 0.000103572 0)
(-0.0118018 1.8675e-05 0)
(-0.0115408 -7.87001e-05 0)
(-0.0107142 -0.000181691 0)
(-0.00934006 -0.000278 0)
(-0.00750703 -0.000350257 0)
(-0.00539086 -0.000378232 0)
(-0.00325457 -0.000342864 0)
(-0.00142469 -0.000231361 0)
(-0.000211463 -5.04897e-05 0)
(0.00012966 0.000117371 0)
(-5.99458e-05 0.000294654 0)
(-0.00157867 0.0015351 0)
(-0.00453554 0.00259598 0)
(-0.00841076 0.00321689 0)
(-0.012703 0.00343464 0)
(-0.0170044 0.00333809 0)
(-0.0209925 0.00300448 0)
(-0.0244138 0.00248238 0)
(-0.0270568 0.00179671 0)
(-0.0287357 0.000962424 0)
(-0.0292899 4.7342e-07 0)
(-0.028597 -0.00104676 0)
(-0.0266042 -0.0021048 0)
(-0.0233688 -0.00306007 0)
(-0.0190975 -0.00376551 0)
(-0.0141734 -0.00406055 0)
(-0.00915114 -0.00380876 0)
(-0.00469681 -0.00295289 0)
(-0.001472 -0.00159201 0)
(-2.41777e-06 -0.000194473 0)
(-0.000213604 0.00144188 0)
(-0.00285645 0.00454723 0)
(-0.00741845 0.00694034 0)
(-0.013142 0.00831476 0)
(-0.019344 0.0087583 0)
(-0.0254914 0.00845204 0)
(-0.0311543 0.00756124 0)
(-0.0359881 0.00619892 0)
(-0.0397043 0.00443212 0)
(-0.0420512 0.00230869 0)
(-0.0428123 -0.000109218 0)
(-0.0418254 -0.00271269 0)
(-0.0390201 -0.00531961 0)
(-0.0344702 -0.00766321 0)
(-0.028447 -0.00940433 0)
(-0.0214575 -0.0101787 0)
(-0.0142395 -0.00968379 0)
(-0.00768455 -0.00780071 0)
(-0.00271975 -0.00473582 0)
(-0.000134861 -0.00124812 0)
(-0.000328705 0.00321896 0)
(-0.00392977 0.00885547 0)
(-0.00987721 0.0128881 0)
(-0.0171601 0.0151228 0)
(-0.0249309 0.0157685 0)
(-0.032568 0.0151326 0)
(-0.0395765 0.0134878 0)
(-0.0455603 0.0110234 0)
(-0.0501847 0.0078564 0)
(-0.0531521 0.00407319 0)
(-0.0541987 -0.00021629 0)
(-0.0531133 -0.00482579 0)
(-0.0497823 -0.00944459 0)
(-0.0442557 -0.0136187 0)
(-0.0368194 -0.0167676 0)
(-0.0280568 -0.0182623 0)
(-0.0188615 -0.0175732 0)
(-0.0103562 -0.014473 0)
(-0.00376968 -0.0092449 0)
(-0.000214423 -0.00288792 0)
(-0.000416852 0.0055146 0)
(-0.00484108 0.0142632 0)
(-0.0120192 0.0201996 0)
(-0.0206936 0.0233668 0)
(-0.0298611 0.024177 0)
(-0.0388285 0.0231099 0)
(-0.0470615 0.020567 0)
(-0.054138 0.0168218 0)
(-0.0596969 0.0120393 0)
(-0.0634035 0.00633722 0)
(-0.0649408 -0.00013663 0)
(-0.0640244 -0.00712092 0)
(-0.0604544 -0.014176 0)
(-0.0542014 -0.0206355 0)
(-0.0455077 -0.0256245 0)
(-0.0349953 -0.0281668 0)
(-0.0237204 -0.0274072 0)
(-0.0131025 -0.0229243 0)
(-0.00477572 -0.0150391 0)
(-0.000263506 -0.00502299 0)
(-0.000493158 0.00825923 0)
(-0.00567764 0.020664 0)
(-0.0140205 0.0287692 0)
(-0.0240257 0.0329496 0)
(-0.0345416 0.0339035 0)
(-0.0448164 0.0323357 0)
(-0.0542952 0.0288033 0)
(-0.0625509 0.0236689 0)
(-0.0692116 0.0171362 0)
(-0.073911 0.00933386 0)
(-0.0762646 0.000421767 0)
(-0.0758851 -0.00929234 0)
(-0.0724326 -0.0192503 0)
(-0.065717 -0.028557 0)
(-0.0558554 -0.0359782 0)
(-0.0434494 -0.0400677 0)
(-0.0297234 -0.0394806 0)
(-0.0164957 -0.0334537 0)
(-0.00598681 -0.0222948 0)
(-0.000309985 -0.00767041 0)
(-0.000569968 0.0114356 0)
(-0.00652603 0.0280357 0)
(-0.0160549 0.0385821 0)
(-0.0274187 0.0438685 0)
(-0.0393212 0.0449664 0)
(-0.0509654 0.0428653 0)
(-0.0617971 0.0383076 0)
(-0.0714061 0.0317492 0)
(-0.0794293 0.0234159 0)
(-0.0854783 0.0134138 0)
(-0.0890972 0.00186839 0)
(-0.0897602 -0.0109205 0)
(-0.0869186 -0.0243135 0)
(-0.0801224 -0.03719 0)
(-0.0692367 -0.047886 0)
(-0.0547304 -0.054314 0)
(-0.0379621 -0.0543788 0)
(-0.0212619 -0.0467126 0)
(-0.00772153 -0.0315001 0)
(-0.000383623 -0.0109969 0)
(-0.000657146 0.0150714 0)
(-0.00746011 0.0364333 0)
(-0.018268 0.0497024 0)
(-0.0310795 0.056192 0)
(-0.0444522 0.0574469 0)
(-0.0575611 0.0548116 0)
(-0.0698786 0.0492487 0)
(-0.0810419 0.0413116 0)
(-0.0907258 0.0312259 0)
(-0.0985425 0.0190287 0)
(-0.103971 0.00474157 0)
(-0.106327 -0.0114255 0)
(-0.104785 -0.0288386 0)
(-0.0985125 -0.0461943 0)
(-0.0869429 -0.0613449 0)
(-0.0702163 -0.0713484 0)
(-0.0496986 -0.0729685 0)
(-0.0283054 -0.0637688 0)
(-0.0103946 -0.0435397 0)
(-0.000523171 -0.015356 0)
(-0.000764045 0.0192318 0)
(-0.00854441 0.0459732 0)
(-0.0207759 0.0622485 0)
(-0.0351522 0.0700227 0)
(-0.0500759 0.0714408 0)
(-0.0647164 0.0682874 0)
(-0.078606 0.0617884 0)
(-0.0914689 0.0526021 0)
(-0.10306 0.0409297 0)
(-0.113034 0.0266838 0)
(-0.120836 0.00969179 0)
(-0.125628 -0.0100511 0)
(-0.126266 -0.0320582 0)
(-0.12141 -0.0549583 0)
(-0.109846 -0.0761255 0)
(-0.0910899 -0.0915438 0)
(-0.0662313 -0.0963033 0)
(-0.0386975 -0.0861266 0)
(-0.0145554 -0.0597886 0)
(-0.000787814 -0.02135 0)
(-0.000903104 0.0240174 0)
(-0.00984753 0.0568198 0)
(-0.0236797 0.0763648 0)
(-0.039726 0.0854533 0)
(-0.05622 0.0869977 0)
(-0.0723529 0.0833296 0)
(-0.0877572 0.0759917 0)
(-0.102291 0.0657598 0)
(-0.115842 0.0527906 0)
(-0.12817 0.0368153 0)
(-0.13875 0.0173634 0)
(-0.146644 -0.0059455 0)
(-0.150401 -0.0329774 0)
(-0.148109 -0.0625121 0)
(-0.137708 -0.0915685 0)
(-0.117724 -0.114916 0)
(-0.0884808 -0.125357 0)
(-0.0535243 -0.115614 0)
(-0.0209078 -0.0821744 0)
(-0.00127538 -0.0299163 0)
(-0.00109625 0.0295746 0)
(-0.0114656 0.0691806 0)
(-0.0270911 0.0921919 0)
(-0.0448527 0.102512 0)
(-0.062797 0.104044 0)
(-0.080175 0.0998001 0)
(-0.0967636 0.091701 0)
(-0.112602 0.0806604 0)
(-0.127768 0.066781 0)
(-0.142197 0.0495678 0)
(-0.155499 0.0281547 0)
(-0.166748 0.00161392 0)
(-0.174311 -0.0305373 0)
(-0.175771 -0.0675491 0)
(-0.168149 -0.10639 0)
(-0.148652 -0.140694 0)
(-0.116172 -0.160477 0)
(-0.0734701 -0.153976 0)
(-0.0302751 -0.113108 0)
(-0.00215381 -0.0424314 0)
(-0.00138689 0.0361246 0)
(-0.0135607 0.0833117 0)
(-0.0311676 0.109832 0)
(-0.0505609 0.121089 0)
(-0.0695903 0.122282 0)
(-0.0876241 0.117254 0)
(-0.104632 0.108371 0)
(-0.120874 0.0967067 0)
(-0.136662 0.0823165 0)
(-0.152184 0.0644644 0)
(-0.167298 0.0418297 0)
(-0.181296 0.0127984 0)
(-0.19261 -0.0239887 0)
(-0.198608 -0.0686427 0)
(-0.195594 -0.118602 0)
(-0.179353 -0.16683 0)
(-0.146651 -0.200513 0)
(-0.0980168 -0.201996 0)
(-0.0434256 -0.155109 0)
(-0.00371093 -0.0608054 0)
(-0.00186361 0.044027 0)
(-0.0164237 0.0995351 0)
(-0.0361537 0.129296 0)
(-0.0568515 0.140834 0)
(-0.0761969 0.141049 0)
(-0.0937802 0.134779 0)
(-0.109827 0.124878 0)
(-0.124847 0.112601 0)
(-0.139413 0.0979753 0)
(-0.154011 0.0800561 0)
(-0.168874 0.0570866 0)
(-0.183736 0.0267309 0)
(-0.197484 -0.0134016 0)
(-0.207814 -0.0646786 0)
(-0.210895 -0.125678 0)
(-0.201426 -0.189664 0)
(-0.173678 -0.241831 0)
(-0.12424 -0.258073 0)
(-0.0605674 -0.209869 0)
(-0.0064036 -0.0874891 0)
(-0.00270561 0.0539017 0)
(-0.0205758 0.118251 0)
(-0.0424082 0.150396 0)
(-0.0636172 0.160978 0)
(-0.081846 0.159123 0)
(-0.0971187 0.150797 0)
(-0.110023 0.139345 0)
(-0.121361 0.126183 0)
(-0.131968 0.11134 0)
(-0.14264 0.0937395 0)
(-0.154048 0.071311 0)
(-0.166566 0.0411294 0)
(-0.179951 -0.000176373 0)
(-0.192907 -0.0554702 0)
(-0.202404 -0.125132 0)
(-0.203022 -0.204149 0)
(-0.186938 -0.277717 0)
(-0.145528 -0.316604 0)
(-0.0802627 -0.276541 0)
(-0.010825 -0.125189 0)
(-0.0042785 0.0668821 0)
(-0.026917 0.139948 0)
(-0.05033 0.172543 0)
(-0.0703105 0.180041 0)
(-0.0848566 0.174434 0)
(-0.0948521 0.162854 0)
(-0.101454 0.149026 0)
(-0.105837 0.134447 0)
(-0.109098 0.119138 0)
(-0.112302 0.101981 0)
(-0.116513 0.0808004 0)
(-0.122777 0.0523823 0)
(-0.131976 0.0127001 0)
(-0.144353 -0.0424118 0)
(-0.158712 -0.115594 0)
(-0.171073 -0.205045 0)
(-0.173113 -0.298989 0)
(-0.151093 -0.367044 0)
(-0.0978248 -0.349259 0)
(-0.0173909 -0.17587 0)
(-0.0072391 0.0849377 0)
(-0.0368107 0.164804 0)
(-0.0598205 0.193999 0)
(-0.0748101 0.195069 0)
(-0.081086 0.183465 0)
(-0.0811856 0.167257 0)
(-0.077176 0.150237 0)
(-0.0707138 0.133763 0)
(-0.0631359 0.117753 0)
(-0.0556555 0.101095 0)
(-0.049553 0.0817074 0)
(-0.0463337 0.0564819 0)
(-0.0478088 0.0213062 0)
(-0.0558701 -0.0286355 0)
(-0.0718325 -0.0979748 0)
(-0.094746 -0.189 0)
(-0.118674 -0.296212 0)
(-0.126997 -0.394615 0)
(-0.103986 -0.414601 0)
(-0.0253942 -0.238531 0)
(-0.0129007 0.112404 0)
(-0.0514578 0.192683 0)
(-0.0675962 0.211169 0)
(-0.0693856 0.200819 0)
(-0.059362 0.18067 0)
(-0.0428079 0.158867 0)
(-0.0229205 0.138533 0)
(-0.00175412 0.120424 0)
(0.0193256 0.10412 0)
(0.0392218 0.0884506 0)
(0.0567613 0.0715457 0)
(0.0703919 0.0507348 0)
(0.0778858 0.0224449 0)
(0.0762753 -0.0178772 0)
(0.0620058 -0.0755958 0)
(0.0322745 -0.156456 0)
(-0.0126352 -0.263104 0)
(-0.0578274 -0.383372 0)
(-0.0847654 -0.451747 0)
(-0.0313062 -0.306699 0)
(-0.0211586 0.152209 0)
(-0.0666749 0.215086 0)
(-0.0563469 0.211099 0)
(-0.0283556 0.184662 0)
(0.00989168 0.155798 0)
(0.0506234 0.130174 0)
(0.0904881 0.108853 0)
(0.127942 0.091369 0)
(0.162297 0.0767341 0)
(0.193105 0.0636803 0)
(0.219738 0.050629 0)
(0.241055 0.0355603 0)
(0.254966 0.0158773 0)
(0.258309 -0.0118862 0)
(0.24637 -0.0521358 0)
(0.213678 -0.111638 0)
(0.153584 -0.19959 0)
(0.0731476 -0.322102 0)
(-0.0215846 -0.437644 0)
(-0.0258818 -0.367319 0)
(-0.026605 0.232208 0)
(-0.0339144 0.226445 0)
(0.04862 0.177719 0)
(0.125717 0.136078 0)
(0.197921 0.103714 0)
(0.261284 0.0798496 0)
(0.315785 0.0624344 0)
(0.362372 0.0495226 0)
(0.402116 0.0396064 0)
(0.435795 0.0314476 0)
(0.463659 0.0238795 0)
(0.485255 0.0156527 0)
(0.498935 0.00529594 0)
(0.502128 -0.00893719 0)
(0.490035 -0.0297228 0)
(0.456712 -0.0619703 0)
(0.390344 -0.115241 0)
(0.287401 -0.210624 0)
(0.115469 -0.346244 0)
(0.0212192 -0.376655 0)
(0.215137 0.136422 0)
(0.28787 0.0994668 0)
(0.448703 0.0576553 0)
(0.551663 0.0367326 0)
(0.623076 0.0237622 0)
(0.675713 0.0155214 0)
(0.715381 0.0103624 0)
(0.74582 0.00708706 0)
(0.769576 0.00491952 0)
(0.788203 0.00336034 0)
(0.80244 0.00204213 0)
(0.812315 0.000663527 0)
(0.817043 -0.00112606 0)
(0.815036 -0.00343049 0)
(0.802558 -0.00693773 0)
(0.775944 -0.0123719 0)
(0.721717 -0.0227373 0)
(0.634512 -0.0407787 0)
(0.430592 -0.0918053 0)
(0.270571 -0.153796 0)
)
;

boundaryField
{
    movingWall
    {
        type            fixedValue;
        value           uniform (1 0 0);
    }
    fixedWalls
    {
        type            fixedValue;
        value           uniform (0 0 0);
    }
    frontAndBack
    {
        type            empty;
    }
}


// ************************************************************************* //
