/*--------------------------------*- C++ -*----------------------------------*\
  =========                 |
  \\      /  F ield         | OpenFOAM: The Open Source CFD Toolbox
   \\    /   O peration     | Website:  https://openfoam.org
    \\  /    A nd           | Version:  13
     \\/     M anipulation  |
\*---------------------------------------------------------------------------*/
FoamFile
{
    format      ascii;
    class       volVectorField;
    location    "2";
    object      U_0;
}
// * * * * * * * * * * * * * * * * * * * * * * * * * * * * * * * * * * * * * //

dimensions      [0 1 -1 0 0 0 0];

internalField   nonuniform List<vector> 
400
(
(8.68914e-05 -8.60116e-05 0)
(-0.000298305 6.04674e-05 0)
(-0.00139647 0.000195233 0)
(-0.00294973 0.000268971 0)
(-0.00472006 0.000295527 0)
(-0.00651374 0.000291323 0)
(-0.00818902 0.000266944 0)
(-0.00963924 0.000227162 0)
(-0.0107755 0.00017287 0)
(-0.0115166 0.000103368 0)
(-0.0117878 1.86769e-05 0)
(-0.0115277 -7.84453e-05 0)
(-0.0107036 -0.000181186 0)
(-0.00933315 -0.000277328 0)
(-0.0075045 -0.000349588 0)
(-0.00539232 -0.000377786 0)
(-0.00325856 -0.000342833 0)
(-0.00142902 -0.000231829 0)
(-0.000214349 -5.13202e-05 0)
(0.000128938 0.000116739 0)
(-6.02403e-05 0.000295644 0)
(-0.00157935 0.00153587 0)
(-0.00453513 0.0025954 0)
(-0.00840724 0.0032146 0)
(-0.0126943 0.00343076 0)
(-0.0169888 0.00333305 0)
(-0.0209693 0.00299891 0)
(-0.0243828 0.00247705 0)
(-0.0270191 0.00179244 0)
(-0.0286935 0.000960043 0)
(-0.029246 6.82728e-07 0)
(-0.0285552 -0.0010436 0)
(-0.0265684 -0.00209886 0)
(-0.0233422 -0.00305228 0)
(-0.0190817 -0.00375745 0)
(-0.014168 -0.00405418 0)
(-0.00915329 -0.00380574 0)
(-0.00470217 -0.00295378 0)
(-0.00147637 -0.00159562 0)
(-3.43202e-06 -0.000197346 0)
(-0.000213709 0.00144297 0)
(-0.00285535 0.0045468 0)
(-0.00741354 0.00693632 0)
(-0.0131303 0.00830653 0)
(-0.0193228 0.00874628 0)
(-0.0254586 0.00843739 0)
(-0.0311088 0.00754563 0)
(-0.0359303 0.0061843 0)
(-0.0396359 0.0044206 0)
(-0.0419754 0.00230232 0)
(-0.0427337 -0.000108759 0)
(-0.0417495 -0.00270455 0)
(-0.0389527 -0.00530428 0)
(-0.0344164 -0.00764285 0)
(-0.0284099 -0.00938273 0)
(-0.0214372 -0.0101605 0)
(-0.014233 -0.00967304 0)
(-0.00768611 -0.00779911 0)
(-0.0027232 -0.00474111 0)
(-0.000135851 -0.00125343 0)
(-0.00032854 0.00321898 0)
(-0.0039261 0.00885113 0)
(-0.00986616 0.012877 0)
(-0.0171379 0.0151043 0)
(-0.0248943 0.0157435 0)
(-0.0325146 0.0151033 0)
(-0.0395053 0.0134573 0)
(-0.0454718 0.0109951 0)
(-0.0500813 0.00783411 0)
(-0.0530378 0.00406057 0)
(-0.0540795 -0.000216199 0)
(-0.0529963 -0.00481144 0)
(-0.0496753 -0.00941664 0)
(-0.0441661 -0.0135807 0)
(-0.0367524 -0.016726 0)
(-0.0280141 -0.0182253 0)
(-0.0188407 -0.0175483 0)
(-0.0103506 -0.0144641 0)
(-0.00377095 -0.00924917 0)
(-0.000215381 -0.00289505 0)
(-0.000416401 0.00551203 0)
(-0.00483463 0.0142517 0)
(-0.0120016 0.020177 0)
(-0.0206603 0.023333 0)
(-0.0298083 0.0241338 0)
(-0.0387536 0.0230606 0)
(-0.0469632 0.0205163 0)
(-0.054017 0.0167749 0)
(-0.0595556 0.0120019 0)
(-0.0632465 0.00631494 0)
(-0.0647749 -0.000139002 0)
(-0.0638584 -0.00710053 0)
(-0.0602984 -0.0141333 0)
(-0.0540654 -0.0205752 0)
(-0.0454003 -0.0255559 0)
(-0.0349212 -0.0281024 0)
(-0.0236785 -0.0273594 0)
(-0.013086 -0.0229007 0)
(-0.00477356 -0.0150379 0)
(-0.000264441 -0.00503062 0)
(-0.000492451 0.00825261 0)
(-0.00566866 0.0206421 0)
(-0.0139968 0.0287311 0)
(-0.023982 0.0328959 0)
(-0.0344737 0.0338369 0)
(-0.0447211 0.032261 0)
(-0.0541709 0.0287267 0)
(-0.0623975 0.0235975 0)
(-0.0690312 0.0170778 0)
(-0.0737081 0.00929656 0)
(-0.0760463 0.000412673 0)
(-0.0756613 -0.00926829 0)
(-0.072216 -0.0191923 0)
(-0.0655215 -0.0284704 0)
(-0.055694 -0.0358748 0)
(-0.0433314 -0.0399652 0)
(-0.0296512 -0.039398 0)
(-0.0164628 -0.0334051 0)
(-0.00597931 -0.0222815 0)
(-0.000310838 -0.00767657 0)
(-0.000569075 0.0114237 0)
(-0.00651517 0.0280008 0)
(-0.0160266 0.0385249 0)
(-0.027367 0.0437906 0)
(-0.0392412 0.0448716 0)
(-0.0508532 0.0427596 0)
(-0.0616499 0.0381988 0)
(-0.0712228 0.0316462 0)
(-0.0792108 0.0233289 0)
(-0.0852279 0.0133535 0)
(-0.0888217 0.00184513 0)
(-0.0894703 -0.0108985 0)
(-0.0866293 -0.0242428 0)
(-0.079852 -0.0370748 0)
(-0.0690044 -0.04774 0)
(-0.0545526 -0.0541603 0)
(-0.0378469 -0.0542458 0)
(-0.0212049 -0.0466243 0)
(-0.00770566 -0.0314648 0)
(-0.00038422 -0.0109984 0)
(-0.000656173 0.0150535 0)
(-0.00744833 0.0363837 0)
(-0.0182374 0.0496235 0)
(-0.0310234 0.0560865 0)
(-0.0443647 0.0573198 0)
(-0.0574374 0.0546698 0)
(-0.0697145 0.0491011 0)
(-0.0808345 0.0411689 0)
(-0.0904737 0.0311004 0)
(-0.0982471 0.0189343 0)
(-0.103638 0.00469287 0)
(-0.105966 -0.0114155 0)
(-0.104415 -0.0287616 0)
(-0.0981544 -0.046051 0)
(-0.0866242 -0.0611491 0)
(-0.0699624 -0.0711289 0)
(-0.0495261 -0.0727652 0)
(-0.0282147 -0.0636209 0)
(-0.0103663 -0.0434681 0)
(-0.000523204 -0.0153479 0)
(-0.00076313 0.0192076 0)
(-0.00853298 0.0459082 0)
(-0.0207458 0.0621468 0)
(-0.0350963 0.0698881 0)
(-0.0499877 0.0712786 0)
(-0.0645896 0.0681052 0)
(-0.0784347 0.0615959 0)
(-0.091248 0.0524112 0)
(-0.102785 0.0407549 0)
(-0.112704 0.0265423 0)
(-0.120454 0.0096033 0)
(-0.125204 -0.0100669 0)
(-0.125817 -0.0319854 0)
(-0.120963 -0.0547913 0)
(-0.109436 -0.0758757 0)
(-0.0907515 -0.0912442 0)
(-0.0659914 -0.0960072 0)
(-0.0385644 -0.085894 0)
(-0.0145103 -0.0596613 0)
(-0.000786854 -0.0213249 0)
(-0.000902428 0.0239876 0)
(-0.00983809 0.0567406 0)
(-0.0236539 0.0762414 0)
(-0.0396767 0.0852899 0)
(-0.0561399 0.0867998 0)
(-0.0722348 0.083105 0)
(-0.0875937 0.0757502 0)
(-0.102074 0.0655139 0)
(-0.115566 0.0525565 0)
(-0.127829 0.036614 0)
(-0.138346 0.0172203 0)
(-0.146183 -0.00600221 0)
(-0.149902 -0.0329222 0)
(-0.1476 -0.06233 0)
(-0.137227 -0.0912651 0)
(-0.117313 -0.114527 0)
(-0.088177 -0.124949 0)
(-0.0533464 -0.11527 0)
(-0.0208427 -0.0819686 0)
(-0.00127286 -0.0298647 0)
(-0.00109604 0.0295407 0)
(-0.0114602 0.0690902 0)
(-0.0270742 0.0920503 0)
(-0.0448176 0.102323 0)
(-0.0627367 0.103814 0)
(-0.0800817 0.0995348 0)
(-0.0966292 0.0914105 0)
(-0.112417 0.0803574 0)
(-0.127525 0.0664829 0)
(-0.141889 0.049299 0)
(-0.155123 0.0279468 0)
(-0.16631 0.00150412 0)
(-0.173825 -0.0305124 0)
(-0.175264 -0.0673635 0)
(-0.167656 -0.106042 0)
(-0.148215 -0.140217 0)
(-0.115833 -0.159947 0)
(-0.0732576 -0.153503 0)
(-0.0301898 -0.112802 0)
(-0.00214898 -0.0423423 0)
(-0.00138739 0.0360893 0)
(-0.0135614 0.0832156 0)
(-0.0311646 0.109679 0)
(-0.0505491 0.120882 0)
(-0.0695634 0.122026 0)
(-0.0875752 0.116956 0)
(-0.104554 0.108039 0)
(-0.120758 0.0963529 0)
(-0.1365 0.0819594 0)
(-0.151967 0.0641313 0)
(-0.167024 0.0415577 0)
(-0.180966 0.0126329 0)
(-0.192234 -0.0240011 0)
(-0.198204 -0.0684662 0)
(-0.195188 -0.118227 0)
(-0.178974 -0.166286 0)
(-0.146335 -0.199878 0)
(-0.0977987 -0.201396 0)
(-0.0433258 -0.15469 0)
(-0.00370274 -0.0606683 0)
(-0.00186503 0.0439942 0)
(-0.0164325 0.0994412 0)
(-0.0361694 0.129142 0)
(-0.0568714 0.140621 0)
(-0.0762169 0.140782 0)
(-0.0937958 0.134462 0)
(-0.109833 0.124521 0)
(-0.124837 0.112214 0)
(-0.139381 0.0975777 0)
(-0.153951 0.0796769 0)
(-0.168782 0.0567667 0)
(-0.183611 0.0265209 0)
(-0.197328 -0.0134494 0)
(-0.207631 -0.0645226 0)
(-0.210692 -0.125303 0)
(-0.201211 -0.189094 0)
(-0.173469 -0.241137 0)
(-0.124066 -0.257379 0)
(-0.060468 -0.209346 0)
(-0.00639109 -0.0872974 0)
(-0.00270801 0.0538763 0)
(-0.0205936 0.118169 0)
(-0.0424452 0.150254 0)
(-0.063674 0.160775 0)
(-0.0819219 0.158863 0)
(-0.0972127 0.150485 0)
(-0.110133 0.138987 0)
(-0.121485 0.125792 0)
(-0.132104 0.110933 0)
(-0.142784 0.0933465 0)
(-0.154196 0.0709739 0)
(-0.166713 0.0408994 0)
(-0.180092 -0.000247108 0)
(-0.193031 -0.0553415 0)
(-0.202495 -0.124789 0)
(-0.203063 -0.20361 0)
(-0.186918 -0.277039 0)
(-0.145461 -0.315887 0)
(-0.0801912 -0.275952 0)
(-0.0108087 -0.124945 0)
(-0.00428154 0.0668689 0)
(-0.0269421 0.139889 0)
(-0.0503855 0.172428 0)
(-0.0704011 0.179867 0)
(-0.0849855 0.174203 0)
(-0.0950222 0.162571 0)
(-0.101668 0.148699 0)
(-0.106095 0.134085 0)
(-0.109403 0.118759 0)
(-0.112651 0.101613 0)
(-0.116903 0.0804832 0)
(-0.1232 0.0521631 0)
(-0.132416 0.0126252 0)
(-0.144789 -0.04231 0)
(-0.159113 -0.115307 0)
(-0.1714 -0.204591 0)
(-0.173327 -0.298407 0)
(-0.151182 -0.366399 0)
(-0.0978165 -0.34868 0)
(-0.0173749 -0.175595 0)
(-0.00724184 0.0849394 0)
(-0.0368373 0.164775 0)
(-0.0598832 0.193922 0)
(-0.0749176 0.194939 0)
(-0.0812454 0.183284 0)
(-0.0814033 0.167028 0)
(-0.0774577 0.149967 0)
(-0.0710643 0.133461 0)
(-0.0635585 0.117435 0)
(-0.0561503 0.100786 0)
(-0.0501152 0.0814419 0)
(-0.0469511 0.0562998 0)
(-0.0484613 0.0212448 0)
(-0.0565281 -0.0285535 0)
(-0.0724578 -0.0977509 0)
(-0.0952918 -0.188657 0)
(-0.119087 -0.29578 0)
(-0.127242 -0.394124 0)
(-0.104064 -0.414122 0)
(-0.0253864 -0.238264 0)
(-0.0129015 0.112419 0)
(-0.0514757 0.192683 0)
(-0.0676458 0.211134 0)
(-0.0694783 0.20074 0)
(-0.0595084 0.180549 0)
(-0.0430176 0.158705 0)
(-0.0232023 0.138337 0)
(-0.00211545 0.120202 0)
(0.0188794 0.103885 0)
(0.0386896 0.088222 0)
(0.0561489 0.0713506 0)
(0.069714 0.0506044 0)
(0.0771674 0.0224072 0)
(0.0755495 -0.0178076 0)
(0.0613114 -0.0754276 0)
(0.0316535 -0.156219 0)
(-0.013134 -0.262828 0)
(-0.0581618 -0.38307 0)
(-0.0849134 -0.451433 0)
(-0.0313132 -0.306491 0)
(-0.0211561 0.152228 0)
(-0.0666746 0.215104 0)
(-0.0563622 0.211095 0)
(-0.0283996 0.184629 0)
(0.00980536 0.155734 0)
(0.0504821 0.130081 0)
(0.0902801 0.108735 0)
(0.127657 0.0912328 0)
(0.161928 0.0765888 0)
(0.192651 0.0635395 0)
(0.219204 0.0505106 0)
(0.240455 0.035485 0)
(0.254329 0.0158632 0)
(0.257668 -0.0118301 0)
(0.245764 -0.0520185 0)
(0.213142 -0.111487 0)
(0.153147 -0.19944 0)
(0.0728364 -0.321963 0)
(-0.0217441 -0.437499 0)
(-0.0259017 -0.367209 0)
(-0.0266012 0.232221 0)
(-0.0339 0.226463 0)
(0.048638 0.177729 0)
(0.125727 0.136073 0)
(0.197908 0.103693 0)
(0.261233 0.0798127 0)
(0.315683 0.0623847 0)
(0.362209 0.0494637 0)
(0.401884 0.0395435 0)
(0.435493 0.0313876 0)
(0.463291 0.0238316 0)
(0.484836 0.0156266 0)
(0.49849 0.00530017 0)
(0.501688 -0.00889986 0)
(0.489633 -0.0296578 0)
(0.456375 -0.0618944 0)
(0.390085 -0.115177 0)
(0.28722 -0.210585 0)
(0.115366 -0.346215 0)
(0.0211965 -0.37663 0)
(0.21514 0.136424 0)
(0.287882 0.0994714 0)
(0.448724 0.0576594 0)
(0.551687 0.0367344 0)
(0.623092 0.0237614 0)
(0.675713 0.0155182 0)
(0.715356 0.0103573 0)
(0.745765 0.00708087 0)
(0.769487 0.00491327 0)
(0.78808 0.0033553 0)
(0.802289 0.0020398 0)
(0.812145 0.000665368 0)
(0.816868 -0.00111886 0)
(0.814876 -0.00341887 0)
(0.80243 -0.0069233 0)
(0.775858 -0.0123582 0)
(0.72167 -0.0227284 0)
(0.634491 -0.0407763 0)
(0.43058 -0.0918084 0)
(0.270567 -0.153798 0)
)
;

boundaryField
{
    movingWall
    {
        type            calculated;
        value           uniform (1 0 0);
    }
    fixedWalls
    {
        type            calculated;
        value           uniform (0 0 0);
    }
    frontAndBack
    {
        type            empty;
    }
}


// ************************************************************************* //
